! TOUCHSTONE file generated by CST MICROWAVE STUDIO
! Date and time: Wed Jun 25 15:23:58 2025
! Project name: rogers4003c_air_gapped_wideband_balanced.cst
! Parameters = {h=3.4; lambda=10; period=5; phi=0; theta=30; thickness=0.508; w_mesh_1=2.2; w_mesh_2=2.2; w_patch_1=2; w_patch_2=2}
! Header version: 2018
! Port assignment regex: !\s*Touchstone port\s*([0-9]+)\s*=\s*(CST MWS port|CST DS port)\s*([0-9]+|Zmin|Zmax)\s*\(\"(.*)\"\)(\s*mode\s*([0-9]+))?.*
! Touchstone port assignment:
! Touchstone port 1 = CST MWS port Zmin ("") mode 1
! Touchstone port 2 = CST MWS port Zmin ("") mode 2
! Touchstone port 3 = CST MWS port Zmax ("") mode 1
! Touchstone port 4 = CST MWS port Zmax ("") mode 2
! S-Parameters are not renormalized. Unphysical impedance of 50 will be written to the file.
# GHz S RI R 50
0                              0               0                0               0      0.999984885   5.2646988e-05  -8.44292069e-08  6.69787455e-07
                               0               0                0               0   6.11845043e-07 -1.62989145e-05      0.999999997  7.17656703e-05
                               0               0                0               0   9.22378728e-05 -1.04585157e-05   1.13561207e-06 -2.67131456e-07
                               0               0                0               0   1.88024193e-06 -4.29041831e-07   5.47340755e-05 -9.96534976e-06
0.06                           0               0                0               0      0.999958192  -0.00482266255  -3.73088029e-08 -9.26470759e-07
                               0               0                0               0   8.25560521e-07 -8.37459841e-06      0.999989796  -0.00386485609
                               0               0                0               0  -2.40538266e-07  -0.00485132055   4.42556765e-07 -1.29488708e-06
                               0               0                0               0   7.32776317e-07  -1.3545971e-06  -2.25037562e-06  -0.00363577483
0.1                            0               0                0               0      0.999913521  -0.00807150588   -2.7755295e-08 -1.98158597e-06
                               0               0                0               0  -3.30930542e-08 -1.97995536e-06      0.999944425   -0.0064873878
                               0               0                0               0  -8.61737941e-05  -0.00807749167  -7.10668206e-09 -1.98170197e-06
                               0               0                0               0   -1.1356604e-08  -1.9801592e-06  -5.48313411e-05  -0.00605248871
0.12                           0               0                0               0      0.999883136  -0.00969542904  -2.93804428e-08 -2.50631582e-06
                               0               0                0               0  -9.19850168e-07  1.55413975e-06      0.999916911  -0.00779805392
                               0               0                0               0  -0.000136428611  -0.00969015504  -2.28243578e-07 -2.32555838e-06
                               0               0                0               0  -3.77192891e-07 -2.29535076e-06  -8.55034363e-05  -0.00726064503
0.18                           0               0                0               0      0.999759843   -0.0145648473  -5.92376213e-08 -4.06878295e-06
                               0               0                0               0  -6.25690738e-06  1.32166152e-05      0.999815115   -0.0117275171
                               0               0                0               0  -0.000316354425   -0.0145260514  -8.76945655e-07 -3.35874983e-06
                               0               0                0               0  -1.44988836e-06 -3.24999439e-06  -0.000195060145   -0.0108840996
0.24                           0               0                0               0      0.999588458   -0.0194301162  -1.25472279e-07 -5.61299951e-06
                               0               0                0               0  -1.71968303e-05  2.49479069e-05       0.99968455   -0.0156529412
                               0               0                0               0  -0.000540025148    -0.019358098  -1.50371165e-06 -4.39407747e-06
                               0               0                0               0  -2.48557603e-06 -4.21726531e-06  -0.000330946892   -0.0145056608
0.3                            0               0                0               0      0.999369145    -0.024290439  -2.26679991e-07  -7.1381817e-06
                               0               0                0               0  -3.46264441e-05  3.29066269e-05      0.999525362   -0.0195740258
                               0               0                0               0  -0.000807427018   -0.0241853824  -2.10870873e-06 -5.43116886e-06
                               0               0                0               0  -3.48456153e-06 -5.19594715e-06    -0.0004931814   -0.0181248502
0.36                           0               0                0               0      0.999102087    -0.029145024  -3.61464706e-07  -8.6436309e-06
                               0               0                0               0  -5.57266773e-05  3.24816431e-05      0.999337702   -0.0234904745
                               0               0                0               0   -0.00111852535   -0.0290069922  -2.69210862e-06 -6.46966298e-06
                               0               0                0               0  -4.44718656e-06 -6.18487011e-06   -0.00068177271   -0.0217411883
0.42                           0               0                0               0      0.998787488   -0.0339930853  -5.28443027e-07 -1.01287301e-05
                               0               0                0               0   -7.4199238e-05  2.26811203e-05      0.999121724   -0.0274019951
                               0               0                0               0   -0.00147326458   -0.0338220161  -3.25408709e-06 -7.50921017e-06
                               0               0                0               0  -5.37382554e-06 -7.18291117e-06  -0.000896721176   -0.0253541951
0.48                           0               0                0               0      0.998425569   -0.0388338432  -7.26248071e-07 -1.15929398e-05
                               0               0                0               0  -8.54110181e-05  7.72515964e-06      0.998877586   -0.0313082992
                               0               0                0               0    -0.0018715683   -0.0386295435  -3.79482357e-06 -8.54947197e-06
                               0               0                0               0  -6.26488233e-06 -8.18899394e-06   -0.00113801846   -0.0289633902
0.54                           0               0                0               0      0.998016572   -0.0436665247  -9.53532903e-07 -1.30357947e-05
                               0               0                0               0  -8.94710768e-05 -7.23714208e-06      0.998605451    -0.035209103
                               0               0                0               0   -0.00231333936   -0.0434286663  -4.31450069e-06 -9.59012108e-06
                               0               0                0               0  -7.12078712e-06 -9.20208844e-06   -0.00140564756   -0.0325682932
0.6                            0               0                0               0      0.997560755   -0.0484903644  -1.20897357e-06 -1.44568993e-05
                               0               0                0               0  -8.89523759e-05  -1.9581926e-05      0.998305485   -0.0391041266
                               0               0                0               0   -0.00279845995   -0.0482184786   -4.8133039e-06 -1.06308411e-05
                               0               0                0               0  -7.94199337e-06 -1.02212107e-05   -0.00169958278   -0.0361684234
0.66                           0               0                0               0      0.997058398   -0.0533046047  -1.49127177e-06  -1.5855924e-05
                               0               0                0               0  -8.62271118e-05 -2.89107124e-05      0.997977856   -0.0429930943
                               0               0                0               0   -0.00332679175   -0.0529980779  -5.29142105e-06 -1.16713267e-05
                               0               0                0               0  -8.72897507e-06 -1.12454223e-05    -0.0020197898   -0.0397633008
0.72                           0               0                0               0      0.996509796   -0.0581084963  -1.79915713e-06 -1.72326015e-05
                               0               0                0               0  -8.27280072e-05 -3.57290152e-05      0.997622739   -0.0468757347
                               0               0                0               0   -0.00389817604   -0.0577665655  -5.74904203e-06 -1.27112829e-05
                               0               0                0               0  -9.48222396e-06 -1.22738294e-05   -0.00236622566   -0.0433524456
0.78                           0               0                0               0      0.995915263   -0.0629012992  -2.13138918e-06 -1.85867229e-05
                               0               0                0               0    -7.916246e-05 -4.06832333e-05      0.997240311   -0.0507517809
                               0               0                0               0   -0.00451243392   -0.0625230469   -6.1863584e-06 -1.37504255e-05
                               0               0                0               0   -1.0202247e-05 -1.33055825e-05   -0.00273883883   -0.0469353786
0.84                           0               0                0               0      0.995275132   -0.0676822827  -2.48675899e-06 -1.99181339e-05
                               0               0                0               0  -7.58314153e-05 -4.43094594e-05       0.99683075     -0.05462097
                               0               0                0               0   -0.00516936646   -0.0672666328  -6.60356304e-06 -1.47884807e-05
                               0               0                0               0  -1.08895641e-05 -1.43398751e-05   -0.00313756922   -0.0505116217
0.9                            0               0                0               0      0.994589752   -0.0724507261  -2.86409054e-06 -2.12267308e-05
                               0               0                0               0  -7.28370818e-05  -4.6998979e-05       0.99639424   -0.0584830435
                               0               0                0               0   -0.00586875496   -0.0719964394   -7.0008498e-06 -1.58251849e-05
                               0               0                0               0  -1.15447056e-05 -1.53759429e-05   -0.00356234823   -0.0540806979
0.96                           0               0                0               0      0.993859488   -0.0772059195  -3.26224175e-06 -2.25124575e-05
                               0               0                0               0  -7.01923627e-05 -4.90248476e-05      0.995930968   -0.0623377472
                               0               0                0               0   -0.00661036112   -0.0767115891   -7.3784132e-06 -1.68602844e-05
                               0               0                0               0  -1.21682103e-05 -1.64130629e-05   -0.00401309883   -0.0576421312
1.02                           0               0                0               0      0.993084724   -0.0819471636  -3.68010537e-06 -2.37753018e-05
                               0               0                0               0  -6.78736779e-05 -5.05753493e-05      0.995441123   -0.0661848314
                               0               0                0               0   -0.00739392738   -0.0814112112  -7.73644811e-06 -1.78935355e-05
                               0               0                0               0  -1.27606238e-05 -1.74505522e-05   -0.00448973558   -0.0611954474
1.08                           0               0                0               0      0.992265859    -0.086673771  -4.11660954e-06 -2.50152917e-05
                               0               0                0               0  -6.58452428e-05 -5.17806862e-05      0.994924898   -0.0700240505
                               0               0                0               0   -0.00821917714    -0.086094442  -8.07514947e-06 -1.89247042e-05
                               0               0                0               0  -1.33224959e-05 -1.84877669e-05   -0.00499216471   -0.0647401738
1.14                           0               0                0               0      0.991403308   -0.0913850659   -4.5707182e-06 -2.62324927e-05
                               0               0                0               0    -6.406971e-05 -5.27317745e-05      0.994382487   -0.0738551634
                               0               0                0               0   -0.00908581505   -0.0907604257  -8.39471198e-06 -1.99535659e-05
                               0               0                0               0  -1.38543797e-05  -1.9524101e-05   -0.00552028421   -0.0682758397
1.2                            0               0                0               0      0.990497502    -0.096080385  -5.04143126e-06 -2.74270046e-05
                               0               0                0               0  -6.25124683e-05 -5.34929132e-05       0.99381409   -0.0776779332
                               0               0                0               0   -0.00999352738   -0.0954083151  -8.69532984e-06 -2.09799054e-05
                               0               0                0               0  -1.43568294e-05 -2.05589851e-05   -0.00607398387   -0.0718019765
1.26                           0               0                0               0      0.989548887    -0.100759078   -5.5277847e-06 -2.85989582e-05
                               0               0                0               0   -6.1143062e-05 -5.41102103e-05      0.993219906   -0.0814921276
                               0               0                0               0    -0.0109419823    -0.100037272  -8.97719652e-06 -2.20035167e-05
                               0               0                0               0  -1.48303994e-05 -2.15918855e-05   -0.00665314539   -0.0753181176
1.32                           0               0                0               0      0.988557923    -0.105420507  -6.02885038e-06  -2.9748513e-05
                               0               0                0               0  -5.99353519e-05 -5.46171933e-05      0.992600139   -0.0852975185
                               0               0                0               0    -0.0119308303    -0.104646466  -9.24050449e-06 -2.30242024e-05
                               0               0                0               0  -1.52756424e-05 -2.26223025e-05   -0.00725764246   -0.0788237992
1.38                           0               0                0               0      0.987525085    -0.110064049  -6.54373583e-06  -3.0875854e-05
                               0               0                0               0  -5.88671702e-05 -5.50385737e-05      0.991954995   -0.0890938821
                               0               0                0               0    -0.0129597045     -0.10923508  -9.48544498e-06 -2.40417742e-05
                               0               0                0               0  -1.56931086e-05 -2.36497695e-05   -0.00788734085   -0.0823185599
1.44                           0               0                0               0      0.986450863    -0.114689095  -7.07158386e-06   -3.198119e-05
                               0               0                0               0  -5.79198107e-05 -5.53928006e-05      0.991284683    -0.092880999
                               0               0                0               0     -0.014028221    -0.113802303  -9.71220781e-06 -2.50560521e-05
                               0               0                0               0  -1.60833442e-05 -2.46738518e-05   -0.00854209851   -0.0858019412
1.5                            0               0                0               0      0.985335759    -0.119295048  -7.61157208e-06 -3.30647501e-05
                               0               0                0               0  -5.70775051e-05  -5.5693815e-05      0.990589414   -0.0966586542
                               0               0                0               0    -0.0151359794    -0.118347338  -9.92098111e-06 -2.60668646e-05
                               0               0                0               0  -1.64468908e-05 -2.56941453e-05   -0.00922176567   -0.0892734875
1.56                           0               0                0               0      0.984180288    -0.123881329  -8.16291235e-06 -3.41267825e-05
                               0               0                0               0  -5.63269452e-05 -5.59522705e-05      0.989869401    -0.100426637
                               0               0                0               0    -0.0162825631    -0.122869398  -1.01119512e-05 -2.70740483e-05
                               0               0                0               0  -1.67842841e-05 -2.67102752e-05   -0.00992618498   -0.0927327465
1.62                           0               0                0               0      0.982984978    -0.128447372  -8.72485012e-06 -3.51675517e-05
                               0               0                0               0  -5.56568694e-05 -5.61763946e-05       0.98912486    -0.104184741
                               0               0                0               0    -0.0174675399    -0.127367708  -1.02853022e-05 -2.80774476e-05
                               0               0                0               0  -1.70960533e-05 -2.77218949e-05    -0.0106551916   -0.0961792692
1.68                           0               0                0               0       0.98175037    -0.132992627  -9.29666371e-06  -3.6187337e-05
                               0               0                0               0  -5.50577158e-05 -5.63726028e-05      0.988356009    -0.107932764
                               0               0                0               0    -0.0186904621    -0.131841504  -1.04412164e-05  -2.9076915e-05
                               0               0                0               0  -1.73827201e-05  -2.8728685e-05    -0.0114086132   -0.0996126098
1.74                           0               0                0               0      0.980477015    -0.137516559  -9.87766356e-06 -3.71864302e-05
                               0               0                0               0  -5.45213342e-05 -5.65459431e-05      0.987563068    -0.111670509
                               0               0                0               0    -0.0199508675    -0.136290037  -1.05798731e-05 -3.00723102e-05
                               0               0                0               0  -1.76447983e-05 -2.97303517e-05    -0.0121862704    -0.103032327
1.8                            0               0                0               0      0.979165476     -0.14201865  -1.04671914e-05 -3.81651344e-05
                               0               0                0               0  -5.40407491e-05 -5.67004206e-05      0.986746259    -0.115397781
                               0               0                0               0    -0.0212482792    -0.140712566  -1.07014497e-05 -3.10635006e-05
                               0               0                0               0  -1.78827931e-05 -3.07266262e-05    -0.0129879766    -0.106437981
1.86                           0               0                0               0      0.977816327    -0.146498398  -1.10646194e-05 -3.91237617e-05
                               0               0                0               0  -5.36099659e-05 -5.68392375e-05      0.985905806    -0.119114393
                               0               0                0               0    -0.0225822067    -0.145108369  -1.08061204e-05 -3.20503606e-05
                               0               0                0               0  -1.80972003e-05 -3.17172633e-05    -0.0138135382     -0.10982914
1.92                           0               0                0               0       0.97643015    -0.150955317  -1.16693494e-05 -4.00626325e-05
                               0               0                0               0  -5.32238111e-05 -5.69649723e-05      0.985041937    -0.122820158
                               0               0                0               0    -0.0239521461    -0.149476733  -1.08940569e-05 -3.30327716e-05
                               0               0                0               0  -1.82885064e-05 -3.27020402e-05    -0.0146627547    -0.113205372
1.98                           0               0                0               0      0.975007541    -0.155388938  -1.22808117e-05 -4.09820736e-05
                               0               0                0               0   -5.2877802e-05 -5.70797153e-05       0.98415488    -0.126514898
                               0               0                0               0    -0.0253575804    -0.153816961  -1.09654277e-05 -3.40106219e-05
                               0               0                0               0  -1.84571877e-05 -3.36807558e-05     -0.015535419    -0.116566251
2.04                           0               0                0               0        0.9735491    -0.159798809  -1.28984645e-05  -4.1882417e-05
                               0               0                0               0  -5.25680387e-05 -5.71851709e-05      0.983244865    -0.130198435
                               0               0                0               0    -0.0267979804    -0.158128369  -1.10203983e-05 -3.49838065e-05
                               0               0                0               0    -1.860371e-05 -3.46532295e-05    -0.0164313175    -0.119911357
2.1                            0               0                0               0      0.972055439    -0.164184494  -1.35217927e-05  -4.2763999e-05
                               0               0                0               0  -5.22911157e-05 -5.72827371e-05      0.982312124    -0.133870598
                               0               0                0               0     -0.028272805    -0.162410288   -1.1059131e-05 -3.59522268e-05
                               0               0                0               0  -1.87285286e-05 -3.56193001e-05    -0.0173502299    -0.123240272
2.16                           0               0                0               0      0.970527177    -0.168545576  -1.41503074e-05 -4.36271585e-05
                               0               0                0               0  -5.20440476e-05 -5.73735662e-05      0.981356894    -0.137531219
                               0               0                0               0    -0.0297815017    -0.166662063  -1.10817848e-05 -3.69157903e-05
                               0               0                0               0  -1.88320879e-05 -3.65788253e-05    -0.0182919299    -0.126552583
2.22                           0               0                0               0      0.968964941    -0.172881655  -1.47835444e-05 -4.44722369e-05
                               0               0                0               0  -5.18242088e-05 -5.74586126e-05      0.980379409    -0.141180136
                               0               0                0               0    -0.0313235073    -0.170883053  -1.10885152e-05  -3.7874411e-05
                               0               0                0               0  -1.89148211e-05 -3.75316801e-05    -0.0192561849    -0.129847882
2.28                           0               0                0               0      0.967369365    -0.177192347  -1.54210635e-05 -4.52995763e-05
                               0               0                0               0  -5.16292814e-05 -5.75386705e-05      0.979379908    -0.144817189
                               0               0                0               0    -0.0328982482    -0.175072633  -1.10794742e-05 -3.88280086e-05
                               0               0                0               0    -1.897715e-05 -3.84777565e-05    -0.0202427565    -0.133125768
2.34                           0               0                0               0      0.965741089    -0.181477288  -1.60624478e-05 -4.61095193e-05
                               0               0                0               0  -5.14572132e-05  -5.7614403e-05      0.978358631    -0.148442224
                               0               0                0               0    -0.0345051409    -0.179230194  -1.10548103e-05 -3.97765086e-05
                               0               0                0               0  -1.90194852e-05 -3.94169625e-05    -0.0212514004    -0.136385841
2.4                            0               0                0               0      0.964080761     -0.18573613  -1.67073027e-05 -4.69024078e-05
                               0               0                0               0  -5.13061814e-05 -5.76863658e-05       0.97731582    -0.152055092
                               0               0                0               0    -0.0361435929    -0.183355141  -1.10146681e-05 -4.07198421e-05
                               0               0                0               0  -1.90422255e-05 -4.03492209e-05    -0.0222818667    -0.139627709
2.46                           0               0                0               0      0.962389031    -0.189968544  -1.73552547e-05 -4.76785829e-05
                               0               0                0               0   -5.1174562e-05 -5.77550265e-05      0.976251719    -0.155655645
                               0               0                0               0    -0.0378130029    -0.187446894  -1.09591886e-05 -4.16579458e-05
                               0               0                0               0  -1.90457585e-05 -4.12744694e-05    -0.0233339001    -0.142850983
2.52                           0               0                0               0      0.960666557    -0.194174219   -1.8005951e-05 -4.84383834e-05
                               0               0                0               0  -5.10609044e-05 -5.78207793e-05      0.975166574    -0.159243745
                               0               0                0               0    -0.0395127614    -0.191504888  -1.08885089e-05 -4.25907617e-05
                               0               0                0               0    -1.903046e-05 -4.21926587e-05    -0.0244072399    -0.146055281
2.58                           0               0                0               0      0.958914001    -0.198352861  -1.86590582e-05  -4.9182146e-05
                               0               0                0               0  -5.09639091e-05 -5.78839572e-05      0.974060632    -0.162819252
                               0               0                0               0    -0.0412422513    -0.195528577  -1.08027621e-05 -4.35182367e-05
                               0               0                0               0   -1.8996694e-05 -4.31037529e-05    -0.0255016202    -0.149240225
2.64                           0               0                0               0      0.957132029    -0.202504195  -1.93142619e-05 -4.99102047e-05
                               0               0                0               0  -5.08824092e-05 -5.79448428e-05      0.972934143    -0.166382036
                               0               0                0               0    -0.0430008484    -0.199517426  -1.07020775e-05  -4.4440323e-05
                               0               0                0               0  -1.89448134e-05 -4.40077279e-05    -0.0266167702    -0.152405444
2.7                            0               0                0               0      0.955321309    -0.206627963  -1.99712656e-05 -5.06228898e-05
                               0               0                0               0  -5.08153544e-05 -5.80036754e-05      0.971787357    -0.169931969
                               0               0                0               0    -0.0447879219     -0.20347092  -1.05865801e-05 -4.53569776e-05
                               0               0                0               0   -1.8875159e-05 -4.49045715e-05    -0.0277524145     -0.15555057
2.76                           0               0                0               0      0.953482515    -0.210723927    -2.062979e-05 -5.13205282e-05
                               0               0                0               0  -5.07617968e-05 -5.80606587e-05      0.970620527    -0.173468927
                               0               0                0               0     -0.046602835    -0.207388557  -1.04563911e-05 -4.62681622e-05
                               0               0                0               0  -1.87880606e-05 -4.57942821e-05    -0.0289082727    -0.158675242
2.82                           0               0                0               0      0.951616321    -0.214791866  -2.12895722e-05 -5.20034424e-05
                               0               0                0               0  -5.07208796e-05 -5.81159657e-05      0.969433907    -0.176992792
                               0               0                0               0    -0.0484449454    -0.211269851  -1.03116274e-05 -4.71738432e-05
                               0               0                0               0  -1.86838362e-05 -4.66768686e-05    -0.0300840602    -0.161779105
2.88                           0               0                0               0      0.949723403    -0.218831576  -2.19503648e-05 -5.26719507e-05