! TOUCHSTONE file generated by CST MICROWAVE STUDIO
! Date and time: Wed Jun 25 15:22:58 2025
! Project name: rogers4003c_air_gapped_wideband_balanced.cst
! Parameters = {h=3.4; lambda=10; period=5; phi=0; theta=15; thickness=0.508; w_mesh_1=2.2; w_mesh_2=2.2; w_patch_1=2; w_patch_2=2}
! Header version: 2018
! Port assignment regex: !\s*Touchstone port\s*([0-9]+)\s*=\s*(CST MWS port|CST DS port)\s*([0-9]+|Zmin|Zmax)\s*\(\"(.*)\"\)(\s*mode\s*([0-9]+))?.*
! Touchstone port assignment:
! Touchstone port 1 = CST MWS port Zmin ("") mode 1
! Touchstone port 2 = CST MWS port Zmin ("") mode 2
! Touchstone port 3 = CST MWS port Zmax ("") mode 1
! Touchstone port 4 = CST MWS port Zmax ("") mode 2
! S-Parameters are not renormalized. Unphysical impedance of 50 will be written to the file.
# GHz S RI R 50
0                              0               0                0               0      0.999990911  0.000143358204   1.13353694e-06 -2.34629946e-06
                               0               0                0               0   7.35861719e-07 -1.92356281e-06      0.999999991  0.000132647279
                               0               0                0               0   6.04594218e-05  0.000114552198   9.85247475e-07  -1.7203629e-06
                               0               0                0               0   6.64320473e-07 -2.34804909e-06   8.46954244e-05  0.000347212304
0.06                           0               0                0               0      0.999966293  -0.00437399636   4.09774459e-07 -3.82802496e-06
                               0               0                0               0   2.51237646e-07    -3.69783e-06      0.999977565  -0.00416062557
                               0               0                0               0  -7.12412522e-06  -0.00438951373   3.53286675e-07  -3.5792556e-06
                               0               0                0               0   2.22941637e-07 -3.86741714e-06   6.01828861e-06  -0.00401725726
0.1                            0               0                0               0       0.99992641  -0.00738321995  -7.88521081e-08  -4.8199607e-06
                               0               0                0               0  -8.12998223e-08  -4.8846823e-06      0.999933548  -0.00702049513
                               0               0                0               0  -7.35831995e-05  -0.00739011537  -7.49061518e-08 -4.81985865e-06
                               0               0                0               0  -7.77898034e-08 -4.88457973e-06  -6.66663936e-05  -0.00692180534
0.12                           0               0                0               0      0.999899449  -0.00888705578  -3.25016935e-07 -5.31716808e-06
                               0               0                0               0  -2.50427249e-07 -5.47930141e-06      0.999905326  -0.00844967734
                               0               0                0               0  -0.000113230316  -0.00888969446  -2.91082679e-07 -5.44055046e-06
                               0               0                0               0  -2.30122254e-07 -5.39443345e-06  -0.000109060402  -0.00837247883
0.18                           0               0                0               0      0.999790581    -0.013395173  -1.07098258e-06 -6.81376375e-06
                               0               0                0               0  -7.69333721e-07  -7.2678924e-06      0.999795897   -0.0127339813
                               0               0                0               0  -0.000257822464   -0.0133851889  -9.47990675e-07 -7.30413767e-06
                               0               0                0               0  -6.95079943e-07 -6.92907225e-06  -0.000260371937   -0.0127178142
0.24                           0               0                0               0      0.999639905   -0.0178977076  -1.82826998e-06 -8.31784684e-06
                               0               0                0               0  -1.30568356e-06 -9.06351557e-06      0.999649474   -0.0170130183
                               0               0                0               0  -0.000440846539   -0.0178751969  -1.61756816e-06 -9.16990416e-06
                               0               0                0               0  -1.17214363e-06 -8.47130475e-06  -0.000447735904   -0.0170526294
0.3                            0               0                0               0      0.999447654   -0.0223940256  -2.59702883e-06 -9.82945211e-06
                               0               0                0               0  -1.85967957e-06 -1.08660806e-05       0.99946627   -0.0212862748
                               0               0                0               0  -0.000662231251   -0.0223589199   -2.2999467e-06 -1.10377336e-05
                               0               0                0               0  -1.66152904e-06  -1.0021099e-05  -0.000670960363   -0.0213762948
0.36                           0               0                0               0      0.999214073   -0.0268835006  -3.37741105e-06 -1.13486142e-05
                               0               0                0               0  -2.43152553e-06 -1.26754945e-05      0.999246502   -0.0255532438
                               0               0                0               0  -0.000921888135   -0.0268355611  -2.99525861e-06 -1.29075061e-05
                               0               0                0               0  -2.16345541e-06 -1.15784197e-05  -0.000929842016   -0.0256881856
0.42                           0               0                0               0       0.99893942   -0.0313655137  -4.16957083e-06 -1.28753678e-05
                               0               0                0               0   -3.0214262e-06  -1.4491661e-05      0.998990403   -0.0298134248
                               0               0                0               0   -0.00121971166   -0.0313043264  -3.70363686e-06 -1.47790986e-05
                               0               0                0               0  -2.67814559e-06 -1.31432283e-05   -0.00122416639   -0.0299876821
0.48                           0               0                0               0      0.998623969    -0.035839454  -4.97366468e-06 -1.44097472e-05
                               0               0                0               0  -3.62958725e-06 -1.63144811e-05      0.998698212   -0.0340663238
                               0               0                0               0   -0.00155557938   -0.0357644245  -4.42521512e-06 -1.66523842e-05
                               0               0                0               0  -3.20582608e-06 -1.47154825e-05   -0.00155370804   -0.0342741698
0.54                           0               0                0               0      0.998268006   -0.0403047188  -5.78985145e-06 -1.59517869e-05
                               0               0                0               0  -4.25621527e-06 -1.81438528e-05      0.998370182    -0.038311454
                               0               0                0               0   -0.00192935204   -0.0402150676   -5.1601277e-06 -1.85272326e-05
                               0               0                0               0  -3.74672701e-06 -1.62951366e-05   -0.00191823071   -0.0385470395
0.6                            0               0                0               0      0.997871832   -0.0447607142  -6.61829238e-06  -1.7501521e-05
                               0               0                0               0  -4.90151773e-06  -1.9979671e-05      0.998006572   -0.0425483361
                               0               0                0               0   -0.00234087376   -0.0446554716  -5.90850952e-06 -2.04035096e-05
                               0               0                0               0  -4.30108227e-06 -1.78821409e-05    -0.0023174876   -0.0428056882
0.66                           0               0                0               0      0.997435758   -0.0492068554  -7.45915114e-06 -1.90589834e-05
                               0               0                0               0  -5.56570294e-06 -2.18218274e-05      0.997607654   -0.0467764978
                               0               0                0               0   -0.00278997223   -0.0490848572  -6.67049608e-06 -2.22810774e-05
                               0               0                0               0  -4.86912947e-06 -1.94764417e-05   -0.00275122151   -0.0470495185
0.72                           0               0                0               0      0.996960111   -0.0536425668  -8.31259389e-06 -2.06242082e-05
                               0               0                0               0  -6.24898003e-06 -2.36702107e-05      0.997173707    -0.050995475
                               0               0                0               0   -0.00327645888   -0.0535024495  -7.44622347e-06 -2.41597942e-05
                               0               0                0               0  -5.45111004e-06 -2.10779814e-05    -0.0032191651   -0.0512779394
0.78                           0               0                0               0      0.996445227   -0.0580672826  -9.17878927e-06 -2.21972291e-05
                               0               0                0               0   -6.9515589e-06 -2.55247063e-05      0.996705022   -0.0552048113
                               0               0                0               0    -0.0038001291    -0.057907479   -8.2358283e-06 -2.60395142e-05
                               0               0                0               0  -6.04726923e-06  -2.2686698e-05   -0.00372104112   -0.0554903662
0.84                           0               0                0               0      0.995891456   -0.0624804471  -1.00579085e-05 -2.37780794e-05
                               0               0                0               0  -7.67365022e-06 -2.73851964e-05      0.996201897   -0.0594040587
                               0               0                0               0   -0.00436076245    -0.062299182  -9.03944765e-06 -2.79200876e-05
                               0               0                0               0  -6.65785617e-06 -2.43025251e-05   -0.00425656261    -0.059686221
0.9                            0               0                0               0      0.995299161   -0.0668815145  -1.09501255e-05 -2.53667925e-05
                               0               0                0               0  -8.41546536e-06   -2.925156e-05      0.995664639   -0.0635927773
                               0               0                0               0   -0.00495812294   -0.0666768008  -9.85721909e-06 -2.98013604e-05
                               0               0                0               0  -7.28312389e-06 -2.59253918e-05   -0.00482543314   -0.0638649326
0.96                           0               0                0               0      0.994668714   -0.0712699502  -1.18556167e-05 -2.69634016e-05
                               0               0                0               0  -9.17721638e-06 -3.11236727e-05      0.995093564   -0.0677705362
                               0               0                0               0   -0.00559195924   -0.0710395844  -1.06892806e-05 -3.16831743e-05
                               0               0                0               0  -7.92332937e-06 -2.75552224e-05   -0.00542734708   -0.0680259369
1.02                           0               0                0               0      0.994000498     -0.07564523  -1.27745613e-05 -2.85679395e-05
                               0               0                0               0  -9.95911598e-06 -3.30014066e-05      0.994488997   -0.0719369129
                               0               0                0               0   -0.00626200499   -0.0753867887  -1.15357706e-05 -3.35653668e-05
                               0               0                0               0  -8.57873355e-06 -2.91919362e-05   -0.00606198983   -0.0721686771
1.08                           0               0                0               0      0.993294911   -0.0800068411  -1.37071413e-05 -3.01804387e-05
                               0               0                0               0  -1.07613775e-05 -3.48846307e-05       0.99385127   -0.0760914942
                               0               0                0               0   -0.00696797905   -0.0797176769  -1.23968277e-05 -3.54477709e-05
                               0               0                0               0  -9.24960141e-06 -3.08354475e-05   -0.00672903805   -0.0762926035
1.14                           0               0                0               0      0.992552356   -0.0843542819  -1.46535413e-05 -3.18009317e-05
                               0               0                0               0  -1.15842147e-05 -3.67732102e-05      0.993180724    -0.080233876
                               0               0                0               0   -0.00770958581   -0.0840315201   -1.3272591e-05 -3.73302149e-05
                               0               0                0               0  -9.93620193e-06 -3.24856653e-05   -0.00742815993   -0.0803971742
1.2                            0               0                0               0       0.99177325   -0.0886870628  -1.56139491e-05 -3.34294506e-05
                               0               0                0               0   -1.2427842e-05 -3.86670071e-05      0.992477706   -0.0843636634
                               0               0                0               0   -0.00848651551   -0.0883275972  -1.41631998e-05 -3.92125225e-05
                               0               0                0               0  -1.06388082e-05 -3.41424932e-05   -0.00815901546   -0.0844818549
1.26                           0               0                0               0      0.990958019   -0.0930047059   -1.6588555e-05 -3.50660271e-05
                               0               0                0               0  -1.32924744e-05 -4.05658796e-05      0.991742573   -0.0884804713
                               0               0                0               0   -0.00929844452   -0.0926051959  -1.50687935e-05 -4.10945129e-05
                               0               0                0               0  -1.13576973e-05 -3.58058288e-05   -0.00892125669   -0.0885461192
1.32                           0               0                0               0      0.990107097   -0.0973067453  -1.75775527e-05 -3.67106926e-05
                               0               0                0               0  -1.41783271e-05 -4.24696825e-05      0.990975687    -0.092583924
                               0               0                0               0    -0.0101450357   -0.0968636125  -1.59895118e-05     -4.2976e-05
                               0               0                0               0  -1.20931506e-05 -3.74755642e-05   -0.00971452795   -0.0925894486
1.38                           0               0                0               0      0.989220928    -0.101592728  -1.85811384e-05 -3.83634784e-05
                               0               0                0               0  -1.50856158e-05 -4.43782668e-05      0.990177417   -0.0966736558
                               0               0                0               0    -0.0110259388    -0.101102153  -1.69254945e-05 -4.48567931e-05
                               0               0                0               0  -1.28454535e-05 -3.91515852e-05    -0.0105384662   -0.0966113327
1.44                           0               0                0               0      0.988299967    -0.105862212  -1.95995118e-05 -4.00244152e-05
                               0               0                0               0  -1.60145566e-05 -4.62914799e-05       0.98934814    -0.100749311
                               0               0                0               0    -0.0119407907    -0.105320131  -1.78768812e-05 -4.67366961e-05
                               0               0                0               0  -1.36148956e-05 -4.08337713e-05    -0.0113927011    -0.100611269
1.5                            0               0                0               0      0.987344674    -0.110114771  -2.06328756e-05 -4.16935335e-05
                               0               0                0               0  -1.69653658e-05 -4.82091654e-05      0.988488238    -0.104810544
                               0               0                0               0    -0.0128892158    -0.109516872  -1.88438119e-05 -4.86155079e-05
                               0               0                0               0  -1.44017706e-05 -4.25219955e-05    -0.0122768558    -0.104588765
1.56                           0               0                0               0       0.98635552    -0.114349988  -2.16814354e-05 -4.33708633e-05
                               0               0                0               0    -1.793826e-05 -5.01311633e-05        0.9875981    -0.108857019
                               0               0                0               0    -0.0138708264    -0.113691712  -1.98264263e-05  -5.0493022e-05
                               0               0                0               0  -1.52063764e-05  -4.4216124e-05    -0.0131905463    -0.108543333
1.62                           0               0                0               0       0.98533298    -0.118567462  -2.27454005e-05 -4.50564342e-05
                               0               0                0               0   -1.8933456e-05 -5.20573096e-05      0.986678119    -0.112888412
                               0               0                0               0    -0.0148852231    -0.117843994  -2.08248639e-05 -5.23690265e-05
                               0               0                0               0  -1.60290152e-05 -4.59160159e-05    -0.0141333827    -0.112474499
1.68                           0               0                0               0      0.984277541    -0.122766805  -2.38249831e-05 -4.67502755e-05
                               0               0                0               0  -1.99511708e-05 -5.39874365e-05      0.985728697    -0.116904407
                               0               0                0               0    -0.0159319953    -0.121973074  -2.18392642e-05 -5.42433039e-05
                               0               0                0               0  -1.68699934e-05 -4.76215233e-05     -0.015104969    -0.116381792
1.74                           0               0                0               0      0.983189694    -0.126947639   -2.4920399e-05  -4.8452416e-05
                               0               0                0               0  -2.09916213e-05 -5.59213723e-05      0.984750239    -0.120904701
                               0               0                0               0    -0.0170107212    -0.126078319  -2.28697663e-05 -5.61156308e-05
                               0               0                0               0  -1.77296215e-05 -4.93324904e-05    -0.0161049031    -0.120264753
1.8                            0               0                0               0      0.982069936    -0.131109604  -2.60318673e-05 -5.01628838e-05
                               0               0                0               0  -2.20550246e-05 -5.78589413e-05      0.983743154       -0.124889
                               0               0                0               0    -0.0181209687    -0.130159107  -2.39165089e-05 -5.79857784e-05
                               0               0                0               0  -1.86082143e-05 -5.10487539e-05    -0.0171327778    -0.124122933
1.86                           0               0                0               0      0.980918774    -0.135252352  -2.71596107e-05 -5.18817068e-05
                               0               0                0               0  -2.31415978e-05 -5.97999639e-05      0.982707858    -0.128857023
                               0               0                0               0    -0.0192622954    -0.134214825  -2.49796306e-05 -5.98535117e-05
                               0               0                0               0  -1.95060908e-05 -5.27701424e-05    -0.0181881803    -0.127955887
1.92                           0               0                0               0      0.979736717    -0.139375547  -2.83038552e-05 -5.36089123e-05
                               0               0                0               0  -2.42515579e-05 -6.17442563e-05      0.981644771    -0.132808496
                               0               0                0               0    -0.0204342491    -0.138244874  -2.60592691e-05 -6.17185895e-05
                               0               0                0               0  -2.04235742e-05  -5.4496476e-05    -0.0192706931    -0.131763183
1.98                           0               0                0               0      0.978524281    -0.143478869  -2.94648308e-05  -5.5344527e-05
                               0               0                0               0  -2.53851215e-05 -6.36916307e-05      0.980554316    -0.136743161
                               0               0                0               0    -0.0216363686    -0.142248665  -2.71555619e-05 -6.35807646e-05
                               0               0                0               0  -2.13609918e-05 -5.62275665e-05     -0.020379894    -0.135544396
2.04                           0               0                0               0      0.977281987    -0.147562012  -3.06427708e-05 -5.70885771e-05
                               0               0                0               0  -2.65425054e-05 -6.56418953e-05      0.979436921    -0.140660766
                               0               0                0               0    -0.0228681835    -0.146225621  -2.82686454e-05 -6.54397835e-05
                               0               0                0               0  -2.23186751e-05 -5.79632164e-05    -0.0215153563    -0.139299111
2.1                            0               0                0               0      0.976010361    -0.151624683  -3.18379125e-05  -5.8841088e-05
                               0               0                0               0  -2.77239258e-05 -6.75948538e-05      0.978293017    -0.144561073
                               0               0                0               0    -0.0241292149    -0.150175179  -2.93986557e-05 -6.72953858e-05
                               0               0                0               0  -2.32969599e-05 -5.97032192e-05    -0.0226766491     -0.14302692
2.16                           0               0                0               0      0.974709934    -0.155666602  -3.30504969e-05 -6.06020848e-05
                               0               0                0               0  -2.89295988e-05 -6.95503061e-05       0.97712304    -0.148443855
                               0               0                0               0    -0.0254189759    -0.154096784  -3.05457278e-05  -6.9147305e-05
                               0               0                0               0   -2.4296186e-05 -6.14473587e-05    -0.0238633377    -0.146727426
2.22                           0               0                0               0       0.97338124    -0.159687507   -3.4280769e-05 -6.23715917e-05
                               0               0                0               0  -3.01597399e-05 -7.15080475e-05      0.975927427    -0.152308895
                               0               0                0               0     -0.026736972    -0.157989897  -3.17099957e-05 -7.09952673e-05
                               0               0                0               0  -2.53166972e-05 -6.31954091e-05     -0.025074984    -0.150400239
2.28                           0               0                0               0      0.972024816    -0.163687147  -3.55289776e-05 -6.41496324e-05
                               0               0                0               0  -3.14145642e-05 -7.34678692e-05      0.974706619    -0.156155987
                               0               0                0               0    -0.0280827013    -0.161853989  -3.28915925e-05 -7.28389924e-05
                               0               0                0               0  -2.63588413e-05 -6.49471341e-05    -0.0263111462     -0.15404498
2.34                           0               0                0               0      0.970641205    -0.167665285  -3.67953758e-05 -6.59362296e-05
                               0               0                0               0  -3.26942863e-05 -7.54295579e-05       0.97346106    -0.159984939
                               0               0                0               0    -0.0294556551    -0.165688543  -3.40906502e-05 -7.46781926e-05
                               0               0                0               0  -2.74229704e-05  -6.6702287e-05    -0.0275713797    -0.157661275
2.4                            0               0                0               0      0.969230949      -0.1716217  -3.80802207e-05 -6.77314055e-05
                               0               0                0               0    -3.399912e-05  -7.7392896e-05      0.972191195    -0.163795567
                               0               0                0               0    -0.0308553185    -0.169493056  -3.53072992e-05 -7.65125732e-05
                               0               0                0               0  -2.85094402e-05 -6.84606101e-05     -0.028855237    -0.161248763
2.46                           0               0                0               0      0.967794597    -0.175556184  -3.93837734e-05 -6.95351815e-05
                               0               0                0               0  -3.53292787e-05 -7.93576616e-05      0.970897473      -0.1675877
                               0               0                0               0    -0.0322811704    -0.173267036  -3.65416688e-05 -7.83418318e-05
                               0               0                0               0  -2.96186104e-05 -7.02218345e-05     -0.030162268     -0.16480709
2.52                           0               0                0               0      0.966332697    -0.179468546  -4.07062997e-05  -7.1347578e-05
                               0               0                0               0  -3.66849747e-05 -8.13236281e-05      0.969580342    -0.171361178
                               0               0                0               0    -0.0337326841    -0.177010005  -3.77938867e-05 -8.01656588e-05
                               0               0                0               0  -3.07508445e-05 -7.19856796e-05    -0.0314920204     -0.16833591
2.58                           0               0                0               0        0.9648458    -0.183358604  -4.20480693e-05 -7.31686148e-05
                               0               0                0               0  -3.80664197e-05 -8.32905645e-05      0.968240254    -0.175115851
                               0               0                0               0    -0.0352093278    -0.180721495  -3.90640789e-05 -8.19837366e-05
                               0               0                0               0  -3.19065096e-05 -7.37518527e-05    -0.0328440398    -0.171834887
2.64                           0               0                0               0      0.963334459    -0.187226196  -4.34093569e-05 -7.49983107e-05
                               0               0                0               0  -3.94738241e-05 -8.52582354e-05      0.966877663    -0.178851583
                               0               0                0               0    -0.0367105651    -0.184401052  -4.03523698e-05 -8.37957398e-05
                               0               0                0               0  -3.30859765e-05 -7.55200488e-05      -0.03421787    -0.175303693
2.7                            0               0                0               0      0.961799227    -0.191071171  -4.47904412e-05 -7.68366835e-05
                               0               0                0               0  -4.09073976e-05 -8.72264005e-05       0.96549302    -0.182568247
                               0               0                0               0    -0.0382358551    -0.188048235  -4.16588817e-05  -8.5601335e-05
                               0               0                0               0  -3.42896196e-05   -7.728995e-05    -0.0356130533    -0.178742007
2.76                           0               0                0               0      0.960240658    -0.194893392  -4.61916059e-05 -7.86837501e-05
                               0               0                0               0  -4.23673487e-05 -8.91948151e-05      0.964086782    -0.186265728
                               0               0                0               0    -0.0397846528    -0.191662614  -4.29837348e-05 -8.74001804e-05
                               0               0                0               0  -3.55178166e-05 -7.90612249e-05    -0.0370291307    -0.182149518
2.82                           0               0                0               0      0.958659309    -0.198692737  -4.76131393e-05 -8.05395263e-05
                               0               0                0               0  -4.38538846e-05 -9.11632299e-05      0.962659402    -0.189943922
                               0               0                0               0      -0.04135641    -0.195243772  -4.43270472e-05 -8.91919261e-05
                               0               0                0               0  -3.67709484e-05 -8.08335287e-05    -0.0384656418    -0.185525925
2.88                           0               0                0               0      0.957055733      -0.2024691  -4.90553344e-05 -8.24040272e-05