! TOUCHSTONE file generated by CST MICROWAVE STUDIO
! Date and time: Wed Jun 25 16:38:23 2025
! Project name: rogers4003c_air_gapped_wideband_balanced.cst
! Parameters = {h=3.4; lambda=10; period=5; phi=0; theta=45; thickness=0.508; w_mesh_1=2.2; w_mesh_2=2.2; w_patch_1=2; w_patch_2=2}
! Header version: 2018
! Port assignment regex: !\s*Touchstone port\s*([0-9]+)\s*=\s*(CST MWS port|CST DS port)\s*([0-9]+|Zmin|Zmax)\s*\(\"(.*)\"\)(\s*mode\s*([0-9]+))?.*
! Touchstone port assignment:
! Touchstone port 1 = CST MWS port Zmin ("") mode 1
! Touchstone port 2 = CST MWS port Zmin ("") mode 2
! Touchstone port 3 = CST MWS port Zmax ("") mode 1
! Touchstone port 4 = CST MWS port Zmax ("") mode 2
! S-Parameters are not renormalized. Unphysical impedance of 50 will be written to the file.
# GHz S RI R 50
0                              0               0                0               0      0.999999998  5.73641863e-05  -9.20733238e-07  8.40090988e-07
                               0               0                0               0  -1.98986546e-07  4.83494875e-07      0.999999993 -0.000121354062
                               0               0                0               0   7.95064378e-05 -3.30478095e-05  -3.98346655e-07  2.98115197e-07
                               0               0                0               0  -6.58567907e-07  3.94073779e-07   2.33353934e-05 -2.66089237e-06
0.06                           0               0                0               0      0.999954224  -0.00567537189  -3.53872875e-07  1.34266807e-06
                               0               0                0               0  -6.36561731e-08  1.20795777e-06      0.999994171  -0.00341436953
                               0               0                0               0  -1.71516584e-05  -0.00571390834  -1.52336676e-07  1.12841097e-06
                               0               0                0               0  -2.54458738e-07  1.17173014e-06  -7.45843032e-06  -0.00272400381
0.1                            0               0                0               0      0.999883851  -0.00949520966   2.60914451e-08  1.68238234e-06
                               0               0                0               0   3.12933011e-08  1.69255293e-06      0.999960396  -0.00561415231
                               0               0                0               0  -0.000115800964  -0.00950025976   8.19646637e-09  1.68247225e-06
                               0               0                0               0   9.39721288e-09  1.69281662e-06  -3.76167901e-05  -0.00453799042
0.12                           0               0                0               0      0.999837688   -0.0114043967   2.16676077e-07  1.85365836e-06
                               0               0                0               0    8.0201608e-08  1.93532606e-06      0.999923067  -0.00671514274
                               0               0                0               0  -0.000175392835    -0.011393022   8.74167804e-08  1.95966049e-06
                               0               0                0               0   1.39654228e-07  1.95414194e-06  -5.55867817e-05  -0.00544488472
0.18                           0               0                0               0      0.999655369   -0.0171284889   7.90777437e-07  2.37324172e-06
                               0               0                0               0   2.32720131e-07  2.66550448e-06      0.999805748   -0.0100223886
                               0               0                0               0  -0.000395242023   -0.0170690668   3.20875695e-07  2.79184923e-06
                               0               0                0               0   5.23718668e-07  2.74119614e-06  -0.000121067184  -0.00816506574
0.24                           0               0                0               0      0.999407464   -0.0228464326   1.36828461e-06  2.90159679e-06
                               0               0                0               0   3.94033034e-07  3.39839362e-06      0.999679347   -0.0133354228
                               0               0                0               0  -0.000676689707     -0.02274072   5.48001487e-07  3.62496299e-06
                               0               0                0               0   8.97684882e-07  3.53278062e-06  -0.000203913875   -0.0108843085
0.3                            0               0                0               0      0.999094199   -0.0285570187   1.94904026e-06  3.43890042e-06
                               0               0                0               0   5.64274171e-07  4.13388976e-06      0.999542641   -0.0166535064
                               0               0                0               0   -0.00101969193   -0.0284066593   7.68754998e-07   4.4589879e-06
                               0               0                0               0   1.26150574e-06  4.32878421e-06  -0.000304137809   -0.0136023742
0.36                           0               0                0               0      0.998715835   -0.0342590455   2.53287604e-06  3.98532715e-06
                               0               0                0               0    7.4357751e-07  4.87188478e-06      0.999394579   -0.0199759664
                               0               0                0               0   -0.00142417035   -0.0340655638   9.83096471e-07  5.29391039e-06
                               0               0                0               0   1.61513664e-06  5.12909688e-06  -0.000421746646   -0.0163190235
0.42                           0               0                0               0       0.99827266   -0.0399513198   3.11961233e-06  4.54104855e-06
                               0               0                0               0   9.32077037e-07  5.61226609e-06      0.999234259   -0.0233021867
                               0               0                0               0   -0.00189001233   -0.0397161152   1.19098554e-06  6.12971728e-06
                               0               0                0               0   1.95853546e-06  5.93360975e-06  -0.000556744756    -0.019034017
0.48                           0               0                0               0      0.997764994   -0.0456326581   3.70905796e-06   5.1062326e-06
                               0               0                0               0   1.12990664e-06   6.3549165e-06        0.9990609   -0.0266316006
                               0               0                0               0   -0.00241707108   -0.0453569991    1.3923812e-06  6.96639569e-06
                               0               0                0               0   2.29166248e-06  6.74221522e-06  -0.000709133217   -0.0217471148
0.54                           0               0                0               0       0.99719319    -0.051301887   4.30100999e-06  5.68104294e-06
                               0               0                0               0   1.33720002e-06  7.09971413e-06      0.998873829   -0.0299636838
                               0               0                0               0   -0.00300516588   -0.0509869059    1.5872418e-06  7.80393314e-06
                               0               0                0               0   2.61448037e-06  7.55480705e-06  -0.000878909818   -0.0244580768
0.6                            0               0                0               0      0.996557627   -0.0569578449   4.89525356e-06  6.26563817e-06
                               0               0                0               0   1.55409051e-06   7.8465323e-06      0.998672461   -0.0332979496
                               0               0                0               0   -0.00365408225   -0.0566045322   1.77552504e-06   8.6423175e-06
                               0               0                0               0   2.92695406e-06  8.37128047e-06   -0.00106606906   -0.0271666628
0.66                           0               0                0               0      0.995858716   -0.0625993824    5.4915617e-06  6.86017107e-06
                               0               0                0               0   1.78071105e-06  8.59523943e-06      0.998456289   -0.0366339438
                               0               0                0               0   -0.00436357232   -0.0622085816    1.9571879e-06    9.481537e-06
                               0               0                0               0   3.22905076e-06  9.19153223e-06   -0.00127060216   -0.0298726326
0.72                           0               0                0               0      0.995096897   -0.0682253634   6.08969524e-06  7.46478776e-06
                               0               0                0               0   2.01719395e-06  9.34569896e-06      0.998224873   -0.0399712412
                               0               0                0               0   -0.00513335507   -0.0677977662   2.13218667e-06  1.03215803e-05
                               0               0                0               0   3.52073983e-06  1.00154607e-05   -0.00149249707   -0.0325757457
0.78                           0               0                0               0      0.994272637   -0.0738346662   6.68940274e-06  8.07962685e-06
                               0               0                0               0   2.26367081e-06  1.00977692e-05      0.997977831   -0.0433094422
                               0               0                0               0   -0.00596311677   -0.0733708073   2.30047693e-06  1.11624364e-05
                               0               0                0               0   3.80199275e-06   1.0842966e-05   -0.00173173845   -0.0352757619
0.84                           0               0                0               0      0.993386434   -0.0794261839   7.29042048e-06  8.70481854e-06
                               0               0                0               0   2.52027239e-06  1.08513034e-05      0.997714831   -0.0466481698
                               0               0                0               0   -0.00685251136   -0.0789264364    2.4620135e-06  1.20040947e-05
                               0               0                0               0   4.07278304e-06    1.167395e-05   -0.00198830771    -0.037972441
0.9                            0               0                0               0       0.99243881   -0.0849988258   7.89247248e-06   9.3404837e-06
                               0               0                0               0   2.78712841e-06  1.16061493e-05      0.997435586   -0.0499870673
                               0               0                0               0   -0.00780116089   -0.0844633969   2.61675043e-06   1.2846545e-05
                               0               0                0               0   4.33308618e-06  1.25083164e-05   -0.00226218304   -0.0406655428
0.96                           0               0                0               0      0.991430318   -0.0905515178   8.49527062e-06  9.98673289e-06
                               0               0                0               0   3.06436741e-06  1.23621494e-05      0.997139849   -0.0533257965
                               0               0                0               0   -0.00880865605   -0.0899804444   2.76464099e-06  1.36897777e-05
                               0               0                0               0   4.58287957e-06   1.3345971e-05   -0.00255333933   -0.0433548274
1.02                           0               0                0               0      0.990361535   -0.0960832037   9.09851479e-06  1.06436654e-05
                               0               0                0               0   3.35211661e-06  1.31191408e-05      0.996827405   -0.0566640353
                               0               0                0               0   -0.00987455669    -0.095476348   2.90563764e-06  1.45337834e-05
                               0               0                0               0    4.8221424e-06  1.41868213e-05   -0.00286174831   -0.0460400551
1.08                           0               0                0               0      0.989233063    -0.101592845   9.70189314e-06  1.13113681e-05
                               0               0                0               0    3.6505017e-06  1.38769548e-05      0.996498073   -0.0600014768
                               0               0                0               0    -0.0109983924    -0.100949891   3.03969201e-06  1.53785533e-05
                               0               0                0               0   5.05085563e-06  1.50307772e-05   -0.00318737845   -0.0487209867
1.14                           0               0                0               0      0.988045532    -0.107079424   1.03050824e-05  1.19899146e-05
                               0               0                0               0   3.95964669e-06  1.46354174e-05      0.996151696   -0.0633378274
                               0               0                0               0    -0.0121796631    -0.106399873   3.16675488e-06  1.62240789e-05
                               0               0                0               0   5.26900188e-06  1.58777506e-05   -0.00353019505    -0.051397383
1.2                            0               0                0               0      0.986799593    -0.112541941   1.09077482e-05  1.26793641e-05
                               0               0                0               0   4.27967368e-06  1.53943484e-05      0.995788145    -0.066672806
                               0               0                0               0    -0.0134178397    -0.111825109   3.28677615e-06  1.70703523e-05
                               0               0                0               0   5.47656536e-06  1.67276556e-05   -0.00389016023   -0.0540690056
1.26                           0               0                0               0      0.985495924    -0.117979417   1.15095456e-05  1.33797603e-05
                               0               0                0               0   4.61070272e-06  1.61535622e-05       0.99540731    -0.070006143
                               0               0                0               0    -0.0147123648    -0.117224432   3.39970481e-06  1.79173661e-05
                               0               0                0               0    5.6735318e-06  1.75804088e-05   -0.00426723294   -0.0567356163
1.32                           0               0                0               0      0.984135223    -0.123390896   1.21101198e-05  1.40911302e-05
                               0               0                0               0   4.95285158e-06  1.69128671e-05      0.995009102   -0.0733375791
                               0               0                0               0    -0.0160626533    -0.122596691   3.50548895e-06  1.87651132e-05
                               0               0                0               0   5.85988835e-06  1.84359288e-05   -0.00466136899   -0.0593969775
1.38                           0               0                0               0      0.982718214    -0.128775443   1.27091064e-05  1.48134832e-05
                               0               0                0               0   5.30623553e-06  1.76720655e-05      0.994593451   -0.0766668647
                               0               0                0               0    -0.0174680934    -0.127940756   3.60407569e-06  1.96135872e-05
                               0               0                0               0    6.0356235e-06  1.92941369e-05    -0.0050725211   -0.0620528523
1.44                           0               0                0               0      0.981245638    -0.134132144   1.33061325e-05  1.55468102e-05
                               0               0                0               0   5.67096711e-06  1.84309537e-05      0.994160301   -0.0799937595
                               0               0                0               0    -0.0189280469    -0.133255517    3.6954112e-06  2.04627822e-05
                               0               0                0               0     6.200727e-06  2.01549567e-05   -0.00550063885   -0.0647030042
1.5                            0               0                0               0      0.979718259    -0.139460111   1.39008175e-05  1.62910819e-05
                               0               0                0               0   6.04715596e-06   1.9189322e-05      0.993709611   -0.0833180312
                               0               0                0               0    -0.0204418507    -0.138539883   3.77944063e-06  2.13126927e-05
                               0               0                0               0    6.3551898e-06  2.10183144e-05   -0.00594566878   -0.0673471976
1.56                           0               0                0               0      0.978136863    -0.144758477   1.44927739e-05  1.70462487e-05
                               0               0                0               0    6.4349085e-06  1.99469543e-05      0.993241357   -0.0866394557
                               0               0                0               0    -0.0220088167    -0.143792784    3.8561081e-06  2.21633138e-05
                               0               0                0               0   6.49900392e-06  2.18841388e-05   -0.00640755437   -0.0699851975
1.62                           0               0                0               0       0.97650225      -0.1500264   1.50816085e-05   1.7812239e-05
                               0               0                0               0   6.83432776e-06  2.07036287e-05      0.992755522   -0.0899578163
                               0               0                0               0    -0.0236282337    -0.149013172    3.9253567e-06  2.30146411e-05
                               0               0                0               0   6.63216239e-06  2.27523613e-05   -0.00688623608   -0.0726167697
1.68                           0               0                0               0      0.974815243    -0.155263065   1.56669236e-05  1.85889582e-05
                               0               0                0               0    7.2455131e-06  2.14591166e-05      0.992252103   -0.0932729033
                               0               0                0               0    -0.0252993673    -0.154200023   3.98712843e-06  2.38666709e-05
                               0               0                0               0   6.75465915e-06  2.36229159e-05   -0.00738165137   -0.0752416809
1.74                           0               0                0               0      0.973076679    -0.160467678   1.62483179e-05  1.93762886e-05
                               0               0                0               0   7.66855993e-06  2.22131834e-05      0.991731108   -0.0965845136
                               0               0                0               0    -0.0270214614    -0.159352334   4.04136418e-06  2.47193999e-05
                               0               0                0               0   6.86648899e-06  2.44957395e-05   -0.00789373473   -0.0778596985
1.8                            0               0                0               0      0.971287414    -0.165639473   1.68253884e-05  2.01740878e-05
                               0               0                0               0   8.10355947e-06  2.29655879e-05      0.991192554   -0.0998924506
                               0               0                0               0    -0.0287937389    -0.164469126   4.08800369e-06  2.55728256e-05
                               0               0                0               0   6.96764742e-06  2.53707716e-05   -0.00842241774   -0.0804705911
1.86                           0               0                0               0      0.969448318    -0.170777709   1.73977314e-05  2.09821882e-05
                               0               0                0               0   8.55059844e-06  2.37160829e-05      0.990636465    -0.103196524
                               0               0                0               0    -0.0306154026    -0.169549446   4.12698556e-06   2.6426946e-05
                               0               0                0               0   7.05813061e-06  2.62479545e-05   -0.00896762903    -0.083074128
1.92                           0               0                0               0      0.967560277    -0.175881673   1.79649443e-05  2.18003963e-05
                               0               0                0               0    9.0097588e-06  2.44644145e-05      0.990062876    -0.106496548
                               0               0                0               0    -0.0324856362    -0.174592362   4.15824716e-06  2.72817597e-05
                               0               0                0               0   7.13793529e-06  2.71272337e-05    -0.0095292944   -0.0856700796
1.98                           0               0                0               0      0.965624189    -0.180950676   1.85266274e-05  2.26284925e-05
                               0               0                0               0   9.48111748e-06  2.52103226e-05      0.989471828    -0.109792344
                               0               0                0               0    -0.0344036053     -0.17959697   4.18172467e-06  2.81372659e-05
                               0               0                0               0   7.20705868e-06  2.80085571e-05    -0.0101073368   -0.0882582175
2.04                           0               0                0               0      0.963640968    -0.185984057    1.9082385e-05  2.34662302e-05
                               0               0                0               0   9.96474599e-06  2.59535405e-05      0.988863367    -0.113083739
                               0               0                0               0     -0.036368458    -0.184562391   4.19735297e-06  2.89934646e-05
                               0               0                0               0   7.26549837e-06  2.88918759e-05    -0.0107016763   -0.0908383141
2.1                            0               0                0               0      0.961611536    -0.190981183   1.96318279e-05  2.43133354e-05
                               0               0                0               0   1.04607102e-05  2.66937954e-05      0.988237551    -0.116370563
                               0               0                0               0    -0.0383793264     -0.18948777   4.20506568e-06  2.98503564e-05
                               0               0                0               0   7.31325223e-06  2.97771442e-05    -0.0113122302   -0.0934101433
2.16                           0               0                0               0       0.95953683    -0.195941446   2.01745751e-05  2.51695073e-05
                               0               0                0               0     1.096907e-05  2.74308079e-05      0.987594438    -0.119652654
                               0               0                0               0    -0.0404353273     -0.19437228   4.20479508e-06  3.07079425e-05
                               0               0                0               0   7.35031835e-06  3.06643191e-05    -0.0119389133   -0.0959734799
2.22                           0               0                0               0      0.957417796    -0.200864267   2.07102554e-05  2.60344171e-05
                               0               0                0               0   1.14898788e-05  2.81642924e-05      0.986934095    -0.122929852
                               0               0                0               0     -0.042535563    -0.199215119   4.19647208e-06   3.1566225e-05
                               0               0                0               0   7.37669494e-06  3.15533605e-05    -0.0125816373   -0.0985280999
2.28                           0               0                0               0      0.955255389    -0.205749095   2.12385098e-05  2.69077091e-05
                               0               0                0               0   1.20231837e-05  2.88939571e-05      0.986256594    -0.126202004
                               0               0                0               0    -0.0446791225    -0.204015513   4.18002621e-06  3.24252065e-05
                               0               0                0               0   7.39238023e-06  3.24442319e-05    -0.0132403116    -0.101073781
2.34                           0               0                0               0      0.953050573    -0.210595406   2.17589933e-05  2.77890005e-05
                               0               0                0               0   1.25690243e-05  2.96195038e-05      0.985562011     -0.12946896
                               0               0                0               0    -0.0468650825    -0.208772714   4.15538556e-06  3.32848906e-05
                               0               0                0               0   7.39737235e-06  3.33368994e-05    -0.0139148427    -0.103610301
2.4                            0               0                0               0       0.95080432    -0.215402702   2.22713769e-05  2.86778817e-05
                               0               0                0               0   1.31274334e-05  3.03406283e-05      0.984850428    -0.132730576
                               0               0                0               0    -0.0490925083    -0.213486001   4.12247676e-06  3.41452814e-05
                               0               0                0               0   7.39166932e-06  3.42313325e-05    -0.0146051347    -0.106137441
2.46                           0               0                0               0      0.948517608    -0.220170517   2.27753498e-05  2.95739172e-05
                               0               0                0               0   1.36984357e-05  3.10570203e-05      0.984121929    -0.135986713
                               0               0                0               0    -0.0513604546    -0.218154679   4.08122493e-06  3.50063839e-05
                               0               0                0               0   7.37526887e-06  3.51275039e-05     -0.015311089    -0.108654982
2.52                           0               0                0               0      0.946191421     -0.22489841   2.32706213e-05  3.04766464e-05
                               0               0                0               0   1.42820478e-05  3.17683634e-05      0.983376606    -0.139237234
                               0               0                0               0     -0.053667967    -0.222778082   4.03155364e-06  3.58682041e-05
                               0               0                0               0   7.34816843e-06  3.60253893e-05    -0.0160326047    -0.111162707
2.58                           0               0                0               0       0.94382675    -0.229585967   2.37569229e-05   3.1385584e-05
                               0               0                0               0   1.48782782e-05  3.24743356e-05      0.982614549    -0.142482008
                               0               0                0               0    -0.0560140822     -0.22735557   3.97338488e-06  3.67307485e-05
                               0               0                0               0   7.31036497e-06  3.69249678e-05    -0.0167695781    -0.113660399
2.64                           0               0                0               0      0.941424588    -0.234232804   2.42340101e-05   3.2300222e-05
                               0               0                0               0   1.54871263e-05  3.31746089e-05      0.981835858    -0.145720908
                               0               0                0               0    -0.0583978295     -0.23188653   3.90663903e-06  3.75940246e-05
                               0               0                0               0   7.26185496e-06  3.78262216e-05    -0.0175219034    -0.116147844
2.7                            0               0                0               0      0.938985933    -0.238838563   2.47016643e-05  3.32200301e-05
                               0               0                0               0   1.61085824e-05  3.38688501e-05      0.981040632    -0.148953812
                               0               0                0               0    -0.0608182317    -0.236370377   3.83123479e-06  3.84580407e-05
                               0               0                0               0   7.20263426e-06  3.87291364e-05    -0.0182894722     -0.11862483
2.76                           0               0                0               0      0.936511784    -0.243402915   2.51596949e-05  3.41444579e-05
                               0               0                0               0   1.67426272e-05  3.45567201e-05      0.980228973    -0.152180601
                               0               0                0               0    -0.0632743057    -0.240806553   3.74708915e-06  3.93228062e-05
                               0               0                0               0   7.13269802e-06  3.96337009e-05    -0.0190721739    -0.121091145
2.82                           0               0                0               0      0.934003142    -0.247925557   2.56079406e-05   3.5072936e-05
                               0               0                0               0   1.73892314e-05   3.5237875e-05      0.979400989    -0.155401161
                               0               0                0               0    -0.0657650639    -0.245194526   3.65411735e-06  4.01883313e-05
                               0               0                0               0   7.05204063e-06  4.05399073e-05    -0.0198698954     -0.12354658
2.88                           0               0                0               0      0.931461011    -0.252406216   2.60462712e-05  3.60048783e-05