! TOUCHSTONE file generated by CST MICROWAVE STUDIO
! Date and time: Fri Oct  3 14:34:14 2025
! Project name: quick_test.cst
! Parameters = {h=3.25; lambda=10; period=5; phi=0; theta=0; thickness=0.508; w_mesh_1=2.2; w_mesh_2=2.2; w_patch_1=2; w_patch_2=2}
! Header version: 2018
! Port assignment regex: !\s*Touchstone port\s*([0-9]+)\s*=\s*(CST MWS port|CST DS port)\s*([0-9]+|Zmin|Zmax)\s*\(\"(.*)\"\)(\s*mode\s*([0-9]+))?.*
! Touchstone port assignment:
! Touchstone port 1 = CST MWS port Zmin ("") mode 1
! Touchstone port 2 = CST MWS port Zmin ("") mode 2
! Touchstone port 3 = CST MWS port Zmax ("") mode 1
! Touchstone port 4 = CST MWS port Zmax ("") mode 2
! S-Parameters are not renormalized. Unphysical impedance of 50 will be written to the file.
# GHz S RI R 50
0                              0               0                0               0      0.999999896  2.64010529e-05   2.29991319e-07  3.21447522e-08
                               0               0                0               0   2.72955369e-07  5.77187886e-08                1  2.69496178e-05
                               0               0                0               0   4.43441324e-05  6.14728945e-06  -1.81378535e-07 -3.62217359e-08
                               0               0                0               0  -1.41627085e-07 -7.85861178e-08   4.77952551e-05  4.54920971e-06
0.06                           0               0                0               0      0.999969212   -0.0044322086   9.31543469e-08   3.0110085e-07
                               0               0                0               0   1.10604637e-07  3.10393615e-07      0.999969433  -0.00443423941
                               0               0                0               0  -1.24871379e-05   -0.0043607909  -6.63977273e-08  2.78143377e-07
                               0               0                0               0  -5.11309452e-08  2.61553485e-07  -1.11744802e-05  -0.00436365572
0.1                            0               0                0               0       0.99992696  -0.00740350607   6.91583809e-09  4.85597233e-07
                               0               0                0               0   6.81265086e-09  4.85495972e-07        0.9999269  -0.00740723651
                               0               0                0               0  -7.08414192e-05  -0.00727119997    1.2508293e-08  4.85656744e-07
                               0               0                0               0   1.25106989e-08  4.85574895e-07  -7.08869708e-05  -0.00727491727
0.12                           0               0                0               0      0.999899304  -0.00888875617  -3.46295659e-08  5.79354527e-07
                               0               0                0               0  -4.36421335e-08  5.75007679e-07      0.999899099  -0.00889333056
                               0               0                0               0  -0.000106162106  -0.00872605361   5.26375904e-08  5.88794262e-07
                               0               0                0               0   4.53163524e-08  5.96765123e-07  -0.000106866912  -0.00873019982
0.18                           0               0                0               0      0.999790258   -0.0133426487   -1.5266717e-07  8.66446039e-07
                               0               0                0               0  -1.88809296e-07  8.51210645e-07      0.999789601   -0.0133497319
                               0               0                0               0  -0.000236706828   -0.0130888666   1.75733351e-07  8.95729188e-07
                               0               0                0               0    1.4763986e-07  9.27057861e-07  -0.000239311534   -0.0130943112
0.24                           0               0                0               0      0.999642171    -0.017793295   -2.6029532e-07  1.16184922e-06
                               0               0                0               0  -3.23933736e-07  1.13855105e-06      0.999641036   -0.0178028531
                               0               0                0               0   -0.00040413061   -0.0174484546   3.02895925e-07  1.19894536e-06
                               0               0                0               0   2.55767461e-07  1.25244037e-06  -0.000408521131   -0.0174552167
0.3                            0               0                0               0      0.999455154   -0.0222401063  -3.56888688e-07  1.46497371e-06
                               0               0                0               0  -4.48077449e-07  1.43647534e-06      0.999453518   -0.0222521065
                               0               0                0               0  -0.000608425992   -0.0218040414   4.34132117e-07   1.4984389e-06
                               0               0                0               0    3.6962979e-07   1.5729209e-06  -0.000614491764   -0.0218121422
0.36                           0               0                0               0      0.999229333   -0.0266824961  -4.41867306e-07  1.77516828e-06
                               0               0                0               0   -5.6034058e-07  1.74432872e-06      0.999227173   -0.0266969066
                               0               0                0               0  -0.000849568758   -0.0261548506   5.69449158e-07  1.79420489e-06
                               0               0                0               0    4.8916016e-07  1.88850718e-06  -0.000857202771   -0.0261643134
0.42                           0               0                0               0      0.998964848   -0.0311198813   -5.1470377e-07  2.09172514e-06
                               0               0                0               0  -6.59874641e-07  2.06135794e-06      0.998962141   -0.0311366712
                               0               0                0               0   -0.00112751796   -0.0305001063   7.08854693e-07  2.08623731e-06
                               0               0                0               0   6.14294485e-07  2.19920646e-06   -0.00113661679   -0.0305109559
0.48                           0               0                0               0      0.998661853   -0.0355516821   -5.7492994e-07  2.41388528e-06
                               0               0                0               0  -7.45895556e-07  2.38671614e-06      0.998658576   -0.0355708216
                               0               0                0               0   -0.00144221597   -0.0348390331   8.52356783e-07  2.37452907e-06
                               0               0                0               0    7.4497121e-07  2.50502538e-06   -0.00145267979   -0.0348512962
0.54                           0               0                0               0      0.998320515   -0.0399773227  -6.22142987e-07  2.74084477e-06
                               0               0                0               0  -8.17696188e-07   2.7194697e-06      0.998316648   -0.0399987828
                               0               0                0               0   -0.00179358853   -0.0391708567    9.9996389e-07  2.65907202e-06
                               0               0                0               0    8.8113124e-07     2.80597e-06   -0.00180532113   -0.0391845616
0.6                            0               0                0               0      0.997941015   -0.0443962315  -6.56010626e-07  3.07176179e-06
                               0               0                0               0  -8.74657975e-07  3.05860707e-06      0.997936536   -0.0444199842
                               0               0                0               0   -0.00218154482    -0.043494805   1.15168487e-06   2.9398569e-06
                               0               0                0               0   1.02271787e-06  3.10204573e-06   -0.00219445363   -0.0435099812
0.66                           0               0                0               0      0.997523547   -0.0488078415  -6.76275403e-07   3.4057645e-06
                               0               0                0               0  -9.16261329e-07  3.40304937e-06      0.997518436   -0.0488338599
                               0               0                0               0   -0.00260597759   -0.0478101075   1.30752898e-06  3.21687339e-06
                               0               0                0               0   1.16967673e-06   3.3932573e-06   -0.00261997368    -0.047826786
0.72                           0               0                0               0      0.997068321    -0.053211591  -6.82757947e-07  3.74195938e-06
                               0               0                0               0  -9.42094465e-07  3.75166272e-06      0.997062558   -0.0532398489
                               0               0                0               0   -0.00306676321   -0.0521159967   1.46750584e-06  3.49011004e-06
                               0               0                0               0    1.3219557e-06  3.67960872e-06   -0.00308176129   -0.0521342097
0.78                           0               0                0               0      0.996575557   -0.0576069237  -6.75359081e-07     4.07944e-06
                               0               0                0               0   -9.5186037e-07   4.1032718e-06      0.996569122   -0.0576373958
                               0               0                0               0   -0.00356376187   -0.0564117082   1.63162546e-06  3.75955433e-06
                               0               0                0               0   1.47950488e-06  3.96110327e-06   -0.00357968028   -0.0564314886
0.84                           0               0                0               0       0.99604549   -0.0619932891  -6.54060755e-07  4.41729598e-06
                               0               0                0               0  -9.45381693e-07  4.45667449e-06      0.996038364    -0.062025951
                               0               0                0               0   -0.00409681768   -0.0606964809   1.79989821e-06  4.02519263e-06
                               0               0                0               0   1.64227647e-06  4.23774345e-06   -0.00411357839   -0.0607178629
0.9                            0               0                0               0      0.995478369   -0.0663701431  -6.18925783e-07  4.75462203e-06
                               0               0                0               0  -9.22603387e-07  4.81065708e-06      0.995470532   -0.0664049713
                               0               0                0               0   -0.00466575883    -0.064969558   1.97233483e-06   4.2870102e-06
                               0               0                0               0   1.81022479e-06  4.50953093e-06   -0.00468328741   -0.0649925765
0.96                           0               0                0               0      0.994874454   -0.0707369482  -5.70096387e-07  5.09052676e-06
                               0               0                0               0  -8.83593029e-07  5.16400976e-06      0.994865888     -0.07077392
                               0               0                0               0   -0.00527039778   -0.0692301871   2.14894639e-06  4.54499116e-06
                               0               0                0               0   1.98330617e-06  4.77646658e-06    -0.0052886234   -0.0692548774
1.02                           0               0                0               0      0.994234018    -0.075093174  -5.07791604e-07  5.42414124e-06
                               0               0                0               0  -8.28538811e-07  5.51554192e-06      0.994224704   -0.0751322674
                               0               0                0               0   -0.00591053147   -0.0734776206   2.32974433e-06  4.79911854e-06
                               0               0                0               0   2.16147889e-06  5.03855036e-06   -0.00592938686   -0.0735040188
1.08                           0               0                0               0      0.993557348   -0.0794382973  -4.32303632e-07  5.75462698e-06
                               0               0                0               0  -7.57745288e-07  5.86409683e-06      0.993547267   -0.0794794913
                               0               0                0               0   -0.00658594149   -0.0777111162    2.5147404e-06  5.04937421e-06
                               0               0                0               0   2.34470317e-06  5.29578139e-06   -0.00660536291   -0.0777392588
1.14                           0               0                0               0      0.992844741    -0.083771803  -3.43993213e-07  6.08118332e-06
                               0               0                0               0  -6.71627053e-07  6.20856538e-06      0.992833875    -0.083815077
                               0               0                0               0   -0.00729639432   -0.0819299376   2.70394671e-06  5.29573891e-06
                               0               0                0               0   2.53294105e-06  5.54815783e-06   -0.00731632152   -0.0819598613
1.2                            0               0                0               0      0.992096509   -0.0880931839  -2.43284177e-07  6.40305403e-06
                               0               0                0               0  -5.70700539e-07  6.54789858e-06      0.992084839   -0.0881385182
                               0               0                0               0   -0.00804164156   -0.0861333544   2.89737565e-06  5.53819223e-06
                               0               0                0               0   2.72615642e-06  5.79567692e-06   -0.00806201776    -0.086165096
1.26                           0               0                0               0      0.991312974   -0.0924019412  -1.30657298e-07  6.71953301e-06
                               0               0                0               0  -4.55574258e-07  6.88111841e-06      0.991300481   -0.0924493168
                               0               0                0               0   -0.00882142022   -0.0903206427   3.09503996e-06  5.77671261e-06
                               0               0                0               0    2.9243149e-06  6.03833492e-06   -0.00884219204   -0.0903542393
1.32                           0               0                0               0      0.990494469   -0.0966975853  -6.64360417e-09  7.02996908e-06
                               0               0                0               0  -3.26937782e-07  7.20732702e-06      0.990481136   -0.0967469837
                               0               0                0               0    -0.0096354529   -0.0944910858   3.29695265e-06   6.0112773e-06
                               0               0                0               0   3.12738381e-06   6.2761271e-06   -0.00965657034   -0.0945265744
1.38                           0               0                0               0      0.989641339    -0.100979635   1.28182693e-07  7.33376973e-06
                               0               0                0               0  -1.85549811e-07  7.52571394e-06      0.989627147    -0.101031039
                               0               0                0               0    -0.0104834482   -0.0986439741   3.50312705e-06   6.2418624e-06
                               0               0                0               0   3.33533216e-06  6.50904771e-06    -0.0105048645   -0.0986813914
1.44                           0               0                0               0      0.988753942     -0.10524762   2.73211493e-07  7.63040394e-06
                               0               0                0               0  -3.22256937e-08   7.8355614e-06      0.988738872    -0.105301011
                               0               0                0               0    -0.0113651007    -0.102778606   3.71357676e-06  6.46844279e-06
                               0               0                0               0   3.54813055e-06  6.73708997e-06    -0.0113867726    -0.102817988
1.5                            0               0                0               0      0.987832645    -0.109501078   4.27804168e-07  7.91940393e-06
                               0               0                0               0   1.32175269e-07  8.13624762e-06      0.987816678     -0.10955644
                               0               0                0               0    -0.0122800919    -0.106894287   3.92831567e-06  6.69099218e-06
                               0               0                0               0   3.76575116e-06  6.96024604e-06    -0.0123019789    -0.106935671
1.56                           0               0                0               0      0.986877824    -0.113739558    5.9130086e-07    8.200366e-06
                               0               0                0               0   3.06762409e-07  8.42724828e-06      0.986860943    -0.113796875
                               0               0                0               0    -0.0132280897    -0.110990332   4.14735792e-06  6.90948307e-06
                               0               0                0               0   3.98816768e-06  7.17850699e-06    -0.0132501548    -0.111033753
1.62                           0               0                0               0      0.985889869    -0.117962619   7.63027571e-07  8.47295043e-06
                               0               0                0               0   4.90625872e-07  8.70813621e-06      0.985872054    -0.118021875
                               0               0                0               0    -0.0142087493    -0.115066064   4.37071791e-06  7.12388671e-06
                               0               0                0               0    4.2153553e-06  7.39186277e-06    -0.0142309584    -0.115111558
1.68                           0               0                0               0      0.984869177    -0.122169831   9.42302932e-07  8.73688059e-06
                               0               0                0               0   6.82848144e-07  8.97857945e-06       0.98485041    -0.122231011
                               0               0                0               0    -0.0152217135    -0.119120816   4.59841031e-06  7.33417314e-06
                               0               0                0               0   4.44729062e-06  7.60030223e-06    -0.0152440355    -0.119168416
1.74                           0               0                0               0      0.983816157    -0.126360775   1.12844457e-06  8.99194128e-06
                               0               0                0               0   8.82514731e-07  9.23833796e-06      0.983796417    -0.126423864
                               0               0                0               0    -0.0162666126    -0.123153929   4.83044999e-06  7.54031116e-06
                               0               0                0               0   4.68395167e-06  7.80381306e-06    -0.0162890194    -0.123203669
1.8                            0               0                0               0      0.982731225    -0.130535041   1.32077498e-06  9.23797642e-06
                               0               0                0               0   1.08872382e-06  9.48725909e-06      0.982710494    -0.130600025
                               0               0                0               0    -0.0173430654    -0.127164753   5.06685208e-06   7.7422683e-06
                               0               0                0               0   4.92531781e-06  8.00238177e-06    -0.0173655315    -0.127216667
1.86                           0               0                0               0      0.981614807    -0.134692235   1.51862686e-06  9.47488622e-06
                               0               0                0               0   1.30059483e-06  9.72527212e-06      0.981593066    -0.134759099
                               0               0                0               0    -0.0184506791     -0.13115265   5.30763191e-06  7.94001081e-06
                               0               0                0               0   5.17136973e-06  8.19599371e-06     -0.018473182    -0.131206769
1.92                           0               0                0               0      0.980467338    -0.138831971   1.72134785e-06  9.70262387e-06
                               0               0                0               0   1.51727578e-06  9.95238209e-06      0.980444567    -0.138900701
                               0               0                0               0    -0.0195890496    -0.135116991   5.55280502e-06  8.13350368e-06
                               0               0                0               0    5.4220894e-06  8.38463298e-06    -0.0196115693    -0.135173347
1.98                           0               0                0               0      0.979289261    -0.142953875   1.92830468e-06  9.92119192e-06
                               0               0                0               0   1.73794947e-06  1.01686631e-05      0.979265441    -0.143024459
                               0               0                0               0    -0.0207577624    -0.139057158   5.80238715e-06  8.32271057e-06
                               0               0                0               0   5.67746001e-06  8.56828248e-06    -0.0207802815    -0.139115779
2.04                           0               0                0               0      0.978081028    -0.147057588   2.13888669e-06  1.01306384e-05
                               0               0                0               0   1.96183846e-06  1.03742512e-05      0.978056139    -0.147130011
                               0               0                0               0    -0.0219563923    -0.142972541    6.0563942e-06  8.50759386e-06
                               0               0                0               0   5.93746599e-06  8.74692385e-06    -0.0219788959    -0.143033458
2.1                            0               0                0               0      0.976843098    -0.151142761   2.35250879e-06  1.03310528e-05
                               0               0                0               0   2.18820896e-06  1.05693373e-05      0.976817119     -0.15121701
                               0               0                0               0    -0.0231845043    -0.146862543   6.31484228e-06  8.68811457e-06
                               0               0                0               0    6.2020929e-06  8.92053745e-06      -0.02320698    -0.146925783
2.16                           0               0                0               0      0.975575936    -0.155209058   2.56861379e-06  1.05225618e-05
                               0               0                0               0   2.41637359e-06  1.07541603e-05      0.975548848    -0.155285121
                               0               0                0               0    -0.0244416538    -0.150726579   6.57774762e-06  8.86423239e-06
                               0               0                0               0   6.47132746e-06  9.08910237e-06    -0.0244640913    -0.150792168
2.22                           0               0                0               0      0.974280017    -0.159256156   2.78667422e-06  1.07053254e-05
                               0               0                0               0   2.64569321e-06  1.09289996e-05      0.974251799    -0.159334019
                               0               0                0               0     -0.025727387    -0.154564073   6.84512662e-06  9.03590566e-06
                               0               0                0               0   6.74515746e-06  9.25259637e-06    -0.0257497784    -0.154632036
2.28                           0               0                0               0      0.972955819    -0.163283745    3.0061936e-06  1.08795327e-05
                               0               0                0               0   2.87557788e-06  1.10941689e-05      0.972926451    -0.163363396
                               0               0                0               0    -0.0270412413    -0.158374461   7.11699581e-06  9.20309133e-06
                               0               0                0               0   7.02357177e-06  9.41099587e-06    -0.0270635807    -0.158444822
2.34                           0               0                0               0      0.971603829    -0.167291527   3.22670727e-06  1.10453982e-05
                               0               0                0               0   3.10548702e-06  1.12500098e-05      0.971573291    -0.167372955
                               0               0                0               0    -0.0283827457    -0.162157189   7.39337184e-06  9.36574496e-06
                               0               0                0               0   7.30656028e-06  9.56427596e-06    -0.0284050292    -0.162229971
2.4                            0               0                0               0       0.97022454     -0.17127922    3.4477828e-06  1.12031575e-05
                               0               0                0               0   3.33492889e-06  1.13968858e-05      0.970192809    -0.171362411
                               0               0                0               0    -0.0297514211    -0.165911719   7.67427145e-06   9.5238207e-06
                               0               0                0               0   7.59411388e-06  9.71241034e-06    -0.0297736468    -0.165986941
2.46                           0               0                0               0      0.968818448    -0.175246553   3.66901998e-06  1.13530643e-05
                               0               0                0               0   3.56345958e-06  1.15351769e-05      0.968785505    -0.175331494
                               0               0                0               0    -0.0311467809    -0.169637519   7.95971149e-06  9.67727129e-06
                               0               0                0               0   7.88622442e-06  9.85537133e-06    -0.0311689487    -0.169715201
2.52                           0               0                0               0      0.967386057    -0.179193268   3.89005056e-06  1.14953867e-05
                               0               0                0               0   3.79068144e-06  1.16652749e-05       0.96735188    -0.179279948
                               0               0                0               0    -0.0325683314    -0.173334072    8.2497089e-06    9.826048e-06
                               0               0                0               0   8.18288466e-06  9.99312983e-06    -0.0325904429    -0.173414233
2.58                           0               0                0               0      0.965927873    -0.183119123   4.11053762e-06  1.16304042e-05
                               0               0                0               0   4.01624127e-06  1.17875786e-05      0.965892442     -0.18320753
                               0               0                0               0    -0.0340155719    -0.177000873   8.54428064e-06  9.97010065e-06
                               0               0                0               0   8.48408828e-06  1.01256553e-05    -0.0340376303    -0.177083528
2.64                           0               0                0               0       0.96444441    -0.187023889   4.33017474e-06  1.17584048e-05
                               0               0                0               0   4.23982812e-06  1.19024904e-05      0.964407702    -0.187114009
                               0               0                0               0    -0.0354879956    -0.180637428   8.84344375e-06  1.01093776e-05
                               0               0                0               0   8.78982981e-06  1.02529157e-05    -0.0355100056    -0.180722592
2.7                            0               0                0               0      0.962936182    -0.190907349   4.54868501e-06  1.18796824e-05
                               0               0                0               0   4.46117095e-06  1.20104123e-05      0.962898177     -0.19099917
                               0               0                0               0    -0.0369850895    -0.184243255    9.1472153e-06  1.02438256e-05
                               0               0                0               0   9.10010462e-06  1.03748776e-05    -0.0370070572    -0.184330941
2.76                           0               0                0               0      0.961403711    -0.194769301   4.76581987e-06  1.19945344e-05
                               0               0                0               0   4.68003616e-06  1.21117436e-05      0.961364386    -0.194862812
                               0               0                0               0     -0.038506335    -0.187817885   9.45561236e-06  1.03733901e-05
                               0               0                0               0   9.41490887e-06  1.04915061e-05    -0.0385282679    -0.187908104
2.82                           0               0                0               0      0.959847518    -0.198609559   4.98135776e-06  1.21032595e-05
                               0               0                0               0   4.89622501e-06  1.22068777e-05      0.959806852    -0.198704747
                               0               0                0               0    -0.0400512085    -0.191360858   9.76865202e-06  1.04980148e-05
                               0               0                0               0   9.73423951e-06  1.06027646e-05    -0.0400731153    -0.191453621
2.88                           0               0                0               0      0.958268129    -0.202427948    5.1951028e-06  1.22061562e-05