! TOUCHSTONE file generated by CST MICROWAVE STUDIO
! Date and time: Mon Jun 16 15:29:09 2025
! Project name: rogers4003c_air_gapped_wideband_balanced.cst
! Parameters = {h=3.4; lambda=10; period=5; phi=0; theta=0; thickness=0.508; w_mesh_1=2.2; w_mesh_2=2.2; w_patch_1=2; w_patch_2=2}
! Header version: 2018
! Port assignment regex: !\s*Touchstone port\s*([0-9]+)\s*=\s*(CST MWS port|CST DS port)\s*([0-9]+|Zmin|Zmax)\s*\(\"(.*)\"\)(\s*mode\s*([0-9]+))?.*
! Touchstone port assignment:
! Touchstone port 1 = CST MWS port Zmin ("") mode 1
! Touchstone port 2 = CST MWS port Zmin ("") mode 2
! Touchstone port 3 = CST MWS port Zmax ("") mode 1
! Touchstone port 4 = CST MWS port Zmax ("") mode 2
! S-Parameters are not renormalized. Unphysical impedance of 50 will be written to the file.
# GHz S RI R 50
0                              0               0                0               0      0.999999999  3.97099009e-05   2.65630152e-06  1.18553526e-06
                               0               0                0               0    2.1435473e-06  1.17670412e-06      0.999999999  3.92837116e-05
                               0               0                0               0   5.96084661e-05 -2.43177454e-05  -3.29773946e-07  1.85277926e-07
                               0               0                0               0  -3.65744975e-07  1.24474239e-07   5.94616254e-05 -2.62442286e-05
0.06                           0               0                0               0      0.999973475  -0.00428760628   1.10827892e-06    1.422632e-06
                               0               0                0               0   8.96097069e-07  1.43874874e-06      0.999972436  -0.00428978551
                               0               0                0               0  -6.48838048e-06  -0.00431713895  -1.26479957e-07  1.08113556e-06
                               0               0                0               0  -1.40560357e-07  1.05832545e-06  -6.56209745e-06  -0.00431994031
0.1                            0               0                0               0      0.999930177  -0.00717102801   2.81138109e-08  1.67998725e-06
                               0               0                0               0    2.8020879e-08  1.68141266e-06      0.999930121  -0.00717441534
                               0               0                0               0  -6.94253928e-05  -0.00717862727   2.83063124e-09   1.6801797e-06
                               0               0                0               0   2.81652456e-09  1.68160403e-06  -6.94456946e-05  -0.00718204725
0.12                           0               0                0               0       0.99990228  -0.00861224204  -5.24131753e-07   1.8416801e-06
                               0               0                0               0  -4.15831238e-07  1.82520408e-06      0.999902696  -0.00861624464
                               0               0                0               0   -0.00010656373  -0.00860917045   6.56203077e-08  1.98022939e-06
                               0               0                0               0   7.24855272e-08  1.99344481e-06  -0.000106556104  -0.00861291025
0.18                           0               0                0               0      0.999793652   -0.0129336573  -2.21751901e-06  2.47122996e-06
                               0               0                0               0  -1.78069126e-06   2.3547417e-06      0.999795408   -0.0129395481
                               0               0                0               0  -0.000240685063   -0.0128996623   2.46527179e-07  2.88243345e-06
                               0               0                0               0   2.73432268e-07    2.929727e-06  -0.000240589482   -0.0129044031
0.24                           0               0                0               0      0.999647713   -0.0172513147   -3.9395793e-06  3.33706848e-06
                               0               0                0               0  -3.18223092e-06  3.04569541e-06      0.999650692   -0.0172591532
                               0               0                0               0  -0.000408903657    -0.017187862    4.1624183e-07  3.78762452e-06
                               0               0                0               0   4.62318809e-07  3.86707023e-06  -0.000408715079   -0.0171936654
0.3                            0               0                0               0      0.999464596   -0.0215646796  -5.64904418e-06  4.45921712e-06
                               0               0                0               0  -4.59903303e-06  3.91484596e-06      0.999468682   -0.0215745198
                               0               0                0               0  -0.000611254533   -0.0214730152   5.74766156e-07  4.69568208e-06
                               0               0                0               0   6.39183338e-07  4.80537626e-06  -0.000610969446   -0.0214799417
0.36                           0               0                0               0      0.999244448   -0.0258732208  -7.29674305e-06  5.84859417e-06
                               0               0                0               0  -6.00437901e-06   4.9759088e-06      0.999249525   -0.0258851112
                               0               0                0               0  -0.000847756409    -0.025754366   7.22102656e-07  5.60648833e-06
                               0               0                0               0   8.04063184e-07  5.74455033e-06  -0.000847372794   -0.0257624749
0.42                           0               0                0               0      0.998987426   -0.0301764102  -8.82806002e-06  7.50383013e-06
                               0               0                0               0  -7.36659069e-06  6.23780907e-06      0.998993377   -0.0301903941
                               0               0                0               0   -0.00111841168   -0.0300311573   8.58254315e-07  6.51992823e-06
                               0               0                0               0   9.56994716e-07  6.68450116e-06   -0.00111792897   -0.0300405068
0.48                           0               0                0               0        0.9986937   -0.0344737236  -1.01868003e-05  9.40889859e-06
                               0               0                0               0  -8.64998676e-06  7.70290875e-06      0.998700409    -0.034489839
                               0               0                0               0   -0.00142320642   -0.0343026316   9.83224486e-07  7.43588948e-06
                               0               0                0               0   1.09801324e-06  7.62514085e-06   -0.00142262543   -0.0343132786
0.54                           0               0                0               0      0.998363452    -0.038764641  -1.13201229e-05  1.15322566e-05
                               0               0                0               0  -9.81652793e-06  9.36543075e-06      0.998370804   -0.0387829208
                               0               0                0               0   -0.00176211036   -0.0385680313   1.09701677e-06  8.35426253e-06
                               0               0                0               0   1.22715289e-06   8.5663849e-06    -0.0017614333   -0.0385800316
0.6                            0               0                0               0      0.997996874   -0.0430486466   -1.2183819e-05  1.38280009e-05
                               0               0                0               0  -1.08281146e-05  1.12103783e-05      0.998004754   -0.0430691187
                               0               0                0               0   -0.00213507699   -0.0428265992   1.19963492e-06  9.27494059e-06
                               0               0                0               0   1.34444658e-06  9.50815212e-06   -0.00213430733   -0.0428400072
0.66                           0               0                0               0      0.997594171   -0.0473252296  -1.27469681e-05  1.62391358e-05
                               0               0                0               0  -1.16493557e-05  1.32132443e-05      0.997602466   -0.0473479169
                               0               0                0               0   -0.00254204351    -0.047077579   1.29108269e-06  1.01978196e-05
                               0               0                0               0   1.44992583e-06  1.04503647e-05   -0.00254118603   -0.0470924477
0.72                           0               0                0               0      0.997155558   -0.0515938842  -1.29950263e-05  1.87025248e-05
                               0               0                0               0  -1.22504812e-05  1.53407238e-05      0.997164157   -0.0516188048
                               0               0                0               0   -0.00298293098   -0.0513202158   1.37136374e-06  1.11227984e-05
                               0               0                0               0   1.54362074e-06  1.13929479e-05   -0.00298199163   -0.0513365969
0.78                           0               0                0               0      0.996681265   -0.0558541098   -1.2930724e-05  2.11546515e-05
                               0               0                0               0  -1.26099704e-05  1.75524802e-05      0.996690056   -0.0558812771
                               0               0                0               0   -0.00345764436   -0.0555537563   1.44048156e-06  1.20497783e-05
                               0               0                0               0   1.62555989e-06  1.23358303e-05   -0.00345663026   -0.0555717001
0.84                           0               0                0               0      0.996171529   -0.0601054118  -1.25726832e-05   2.3537118e-05
                               0               0                0               0  -1.27164629e-05  1.98038078e-05      0.996180402   -0.0601348346
                               0               0                0               0   -0.00396607261   -0.0597774498   1.49843927e-06  1.29786636e-05
                               0               0                0               0   1.69577023e-06  1.32789438e-05   -0.00396499199    -0.059797005
0.9                            0               0                0               0        0.9956266   -0.0643473014  -1.19521977e-05    2.580095e-05
                               0               0                0               0  -1.25696211e-05  2.20488397e-05      0.995635449   -0.0643789842
                               0               0                0               0   -0.00450808883   -0.0639905482   1.54523962e-06  1.39093614e-05
                               0               0                0               0   1.75427699e-06  1.42222233e-05   -0.00450695094   -0.0640117621
0.96                           0               0                0               0      0.995046739   -0.0685792964  -1.11089733e-05  2.79091583e-05
                               0               0                0               0  -1.21798099e-05  2.42438262e-05      0.995055458   -0.0686132391
                               0               0                0               0   -0.00508355036   -0.0681923066   1.58088477e-06  1.48417813e-05
                               0               0                0               0   1.80110363e-06  1.51656066e-05   -0.00508236546    -0.068215225
1.02                           0               0                0               0      0.994432218   -0.0728009208   -1.0086694e-05  2.98374768e-05
                               0               0                0               0  -1.15666907e-05  2.63500086e-05      0.994440704   -0.0728371195
                               0               0                0               0   -0.00569229897   -0.0723819838   1.60537627e-06  1.57758358e-05
                               0               0                0               0   1.83627174e-06   1.6109035e-05   -0.00569107822    -0.072406651
1.08                           0               0                0               0       0.99378332   -0.0770117059  -8.92911968e-06  3.15735813e-05
                               0               0                0               0   -1.0757021e-05  2.83357216e-05      0.993791471   -0.0770501525
                               0               0                0               0   -0.00633416097   -0.0765588427    1.6187149e-06  1.67114401e-05
                               0               0                0               0   1.85980095e-06  1.70524526e-05   -0.00633291645   -0.0765853014
1.14                           0               0                0               0      0.993100337   -0.0812111902  -7.67712617e-06  3.31152938e-05
                               0               0                0               0  -9.78205786e-06  3.01775412e-05      0.993108055   -0.0812518728
                               0               0                0               0   -0.00700894746   -0.0807221507   1.62090057e-06  1.76485122e-05
                               0               0                0               0   1.87170884e-06  1.79958063e-05   -0.00700769202    -0.080750442
1.2                            0               0                0               0      0.992383572   -0.0853989196  -6.36680904e-06  3.44683045e-05
                               0               0                0               0  -8.67496581e-06  3.18604891e-05      0.992390761   -0.0854418227
                               0               0                0               0   -0.00771645447   -0.0848711802   1.61193225e-06  1.85869726e-05
                               0               0                0               0    1.8720109e-06  1.89390463e-05   -0.00771520175   -0.0849013436
1.26                           0               0                0               0       0.99163334   -0.0895744479  -5.02855337e-06  3.56438463e-05
                               0               0                0               0  -7.46854706e-06  3.33774577e-05      0.991639905   -0.0896195524
                               0               0                0               0   -0.00845646321   -0.0890052091   1.59180781e-06  1.95267448e-05
                               0               0                0               0   1.86072043e-06  1.98821255e-05   -0.00845522751   -0.0890372824
1.32                           0               0                0               0      0.990849963    -0.093737337   -3.6868583e-06  3.66566071e-05
                               0               0                0               0  -6.19348508e-06     3.47281e-05      0.990855814   -0.0937846206
                               0               0                0               0   -0.00922874027   -0.0931235207   1.56052395e-06  2.04677547e-05
                               0               0                0               0   1.83784845e-06  2.08249998e-05   -0.00922753654   -0.0931575403
1.38                           0               0                0               0      0.990033775   -0.0978871572  -2.36067392e-06  3.75230257e-05
                               0               0                0               0  -4.87716589e-06  3.59174452e-05      0.990038824   -0.0979365943
                               0               0                0               0    -0.0100330379    -0.097225405   1.51807608e-06  2.14099312e-05
                               0               0                0               0   1.80340365e-06   2.1767628e-05    -0.0100318816   -0.0972614054
1.44                           0               0                0               0      0.989185119    -0.102023487  -1.06403319e-06  3.82600071e-05
                               0               0                0               0   -3.5430414e-06  3.69544579e-05      0.989189281     -0.10207505
                               0               0                0               0    -0.0108690942    -0.101310158   1.46445824e-06  2.23532056e-05
                               0               0                0               0    1.7573923e-06  2.27099715e-05    -0.0108680014    -0.101348172
1.5                            0               0                0               0      0.988304346    -0.106145916   1.93188946e-07  3.88840265e-05
                               0               0                0               0  -2.21043925e-06  3.78507025e-05      0.988307539    -0.106199571
                               0               0                0               0    -0.0117366334    -0.105377084   1.39966298e-06  2.32975121e-05
                               0               0                0               0   1.69981819e-06  2.36519948e-05    -0.0117356206    -0.105417143
1.56                           0               0                0               0      0.987391819    -0.110254039   1.40450393e-06  3.94105563e-05
                               0               0                0               0  -8.94699817e-07  3.86192027e-05      0.987393964    -0.110309754
                               0               0                0               0    -0.0126353663    -0.109425492   1.32368125e-06  2.42427872e-05
                               0               0                0               0   1.63068254e-06  2.45936649e-05    -0.0126344503    -0.109467626
1.62                           0               0                0               0      0.986447907    -0.114347463    2.5660941e-06  3.98537438e-05
                               0               0                0               0   3.92475906e-07  3.92735354e-05      0.986448928    -0.114405202
                               0               0                0               0    -0.0135649903    -0.113454701   1.23650232e-06  2.51889706e-05
                               0               0                0               0   1.54998396e-06  2.55349519e-05    -0.0135641883    -0.113498937
1.68                           0               0                0               0       0.98547299    -0.118425805   3.67618781e-06  4.02262698e-05
                               0               0                0               0   1.64256528e-06  3.98271573e-05      0.985472814    -0.118485529
                               0               0                0               0    -0.0145251898    -0.117464037   1.13811366e-06  2.61360041e-05
                               0               0                0               0   1.45771834e-06  2.64758282e-05    -0.0145245192    -0.117510403
1.74                           0               0                0               0      0.984467454    -0.122488691   4.73453636e-06  4.05393302e-05
                               0               0                0               0   2.84972348e-06  4.02929378e-05      0.984466012    -0.122550359
                               0               0                0               0    -0.0155156367    -0.121452835   1.02850085e-06  2.70838325e-05
                               0               0                0               0    1.3538788e-06  2.74162692e-05    -0.0155151152    -0.121501354
1.8                            0               0                0               0      0.983431696    -0.126535756   5.74199023e-06  4.08026957e-05
                               0               0                0               0   4.01029354e-06  4.06828639e-05      0.983428921    -0.126599326
                               0               0                0               0    -0.0165359905    -0.125420438   9.07647497e-07  2.80324029e-05
                               0               0                0               0   1.23845563e-06  2.83562529e-05    -0.0165356358    -0.125471134
1.86                           0               0                0               0      0.982366117    -0.130566649   6.70016456e-06  4.10248172e-05
                               0               0                0               0   5.12235707e-06  4.10078767e-05      0.982361948    -0.130632075
                               0               0                0               0    -0.0175858987    -0.129366198   7.75535095e-07  2.89816654e-05
                               0               0                0               0   1.11143621e-06  2.92957599e-05    -0.0175857286    -0.129419091
1.92                           0               0                0               0      0.981271131    -0.134581024   7.61118089e-06  4.12129532e-05
                               0               0                0               0   6.18534088e-06  4.12778078e-05      0.981265506    -0.134648262
                               0               0                0               0     -0.018664997    -0.133289476   6.32142965e-07  2.99315725e-05
                               0               0                0               0   9.72804953e-07  3.02347736e-05    -0.0186650295    -0.133344587
1.98                           0               0                0               0      0.980147153    -0.138578552   8.47747179e-06   4.1373304e-05
                               0               0                0               0   7.19968429e-06  4.15013818e-05      0.980140019    -0.138647554
                               0               0                0               0    -0.0197729102    -0.137189644   4.77448138e-07  3.08820791e-05
                               0               0                0               0   8.22543206e-07  3.11732799e-05     -0.019773163     -0.13724699
2.04                           0               0                0               0      0.978994612     -0.14255891   9.30163587e-06  4.15111431e-05
                               0               0                0               0   8.16656551e-06  4.16862648e-05      0.978985914    -0.142629628
                               0               0                0               0    -0.0209092518    -0.141066081   3.11425263e-07  3.18331431e-05
                               0               0                0               0   6.60629218e-07  3.21112672e-05    -0.0209097426    -0.141125679
2.1                            0               0                0               0      0.977813937    -0.146521789   1.00863324e-05  4.16309409e-05
                               0               0                0               0    9.0876817e-06  4.18391388e-05      0.977803627    -0.146594174
                               0               0                0               0    -0.0220736249    -0.144918178   1.34046507e-07  3.27847247e-05
                               0               0                0               0    4.8703806e-07  3.30487269e-05    -0.0220743713    -0.144980043
2.16                           0               0                0               0      0.976605569    -0.150466891   1.08342064e-05  4.17364764e-05
                               0               0                0               0   9.96507574e-06  4.19657902e-05      0.976593601    -0.150540892
                               0               0                0               0    -0.0232656223    -0.148745336  -5.47185421e-08  3.37367868e-05
                               0               0                0               0   3.01741553e-07  3.39856525e-05    -0.0232666416    -0.148809481
2.22                           0               0                0               0      0.975369952    -0.154393928   1.15478375e-05  4.18309372e-05
                               0               0                0               0   1.08010024e-05  4.20712032e-05      0.975356283    -0.154469495
                               0               0                0               0    -0.0244848272    -0.152546966  -2.54902973e-07  3.46892949e-05
                               0               0                0               0   1.04708206e-07  3.49220405e-05    -0.0244861364    -0.152613402
2.28                           0               0                0               0      0.974107537    -0.158302626   1.22297053e-05  4.19170073e-05
                               0               0                0               0    1.1597827e-05  4.21596518e-05      0.974092128    -0.158379708
                               0               0                0               0     -0.025730813    -0.156322489  -4.66542646e-07  3.56422169e-05
                               0               0                0               0  -1.04096852e-07  3.58578897e-05     -0.025732429    -0.156391227
2.34                           0               0                0               0      0.972818781    -0.162192721   1.28821685e-05   4.1996943e-05
                               0               0                0               0   1.23579494e-05  4.22347875e-05      0.972801596    -0.162271266
                               0               0                0               0    -0.0270031445    -0.160071338  -6.89676294e-07  3.65955236e-05
                               0               0                0               0  -3.24711941e-07  3.67932016e-05    -0.0270050835    -0.160142386
2.4                            0               0                0               0      0.971504145    -0.166063962   1.35074531e-05  4.20726386e-05
                               0               0                0               0   1.30837498e-05  4.22997198e-05      0.971485152    -0.166143918
                               0               0                0               0    -0.0283013776    -0.163792957  -9.24345617e-07  3.75491881e-05
                               0               0                0               0  -5.57178893e-07  3.77279803e-05    -0.0283036556    -0.163866322
2.46                           0               0                0               0      0.970164097     -0.16991611   1.41076471e-05   4.2145682e-05
                               0               0                0               0   1.37775498e-05  4.23570897e-05      0.970143266    -0.169997426
                               0               0                0               0    -0.0296250599    -0.167486799  -1.17059538e-06  3.85031863e-05
                               0               0                0               0  -8.01543128e-07  3.86622324e-05    -0.0296276923    -0.167562487
2.52                           0               0                0               0      0.968799108    -0.173748938   1.46847008e-05  4.22174029e-05
                               0               0                0               0   1.44415854e-05  4.24091341e-05      0.968776412    -0.173831563
                               0               0                0               0    -0.0309737313     -0.17115233  -1.42847352e-06  3.94574966e-05
                               0               0                0               0  -1.05785371e-06  3.95959672e-05     -0.030976733    -0.171230346
2.58                           0               0                0               0      0.967409655    -0.177562231   1.52404291e-05   4.2288913e-05
                               0               0                0               0   1.50779909e-05  4.24577437e-05      0.967385071    -0.177646114
                               0               0                0               0    -0.0323469242    -0.174789027  -1.69803121e-06  4.04120999e-05
                               0               0                0               0  -1.32616343e-06  4.05291963e-05    -0.0323503095    -0.174869373
2.64                           0               0                0               0      0.965996217    -0.181355789   1.57765172e-05  4.23611403e-05
                               0               0                0               0   1.56887886e-05  4.25045128e-05      0.965969724    -0.181440878
                               0               0                0               0     -0.033744164    -0.178396378  -1.97932302e-06  4.13669798e-05
                               0               0                0               0  -1.60652886e-06  4.14619342e-05    -0.0337479465    -0.178479056
2.7                            0               0                0               0      0.964559278    -0.185129422   1.62945267e-05  4.24348582e-05
                               0               0                0               0   1.62758838e-05  4.25507825e-05       0.96453086    -0.185215667
                               0               0                0               0    -0.0351649693    -0.181973883  -2.27240695e-06  4.23221227e-05
                               0               0                0               0  -1.89901042e-06  4.23941978e-05     -0.035169162    -0.182058893
2.76                           0               0                0               0      0.963099326    -0.188882953   1.67959031e-05  4.25107101e-05
                               0               0                0               0   1.68410644e-05  4.25976788e-05      0.963068967    -0.188970305
                               0               0                0               0    -0.0366088526    -0.185521053  -2.57734457e-06  4.32775174e-05
                               0               0                0               0  -2.20367249e-06  4.33260069e-05    -0.0366134678    -0.185608394
2.82                           0               0                0               0      0.961616851    -0.192616218   1.72819833e-05  4.25892295e-05
                               0               0                0               0   1.73860025e-05  4.26461444e-05       0.96158454    -0.192704629
                               0               0                0               0    -0.0380753205    -0.189037411  -2.89420109e-06  4.42331554e-05
                               0               0                0               0  -2.52058341e-06  4.42573835e-05    -0.0380803697     -0.18912708
2.88                           0               0                0               0      0.960112347    -0.196329068   1.77540032e-05   4.2670858e-05