! TOUCHSTONE file generated by CST MICROWAVE STUDIO
! Date and time: Wed Apr 16 10:23:19 2025
! Project name: NO_SUB_one_layer.cst
! Parameters = {h=0; lambda=10; period=5; phi=0; theta=0; thickness=0; w_mesh_1=2; w_mesh_2=2; w_patch_1=1.6; w_patch_2=1.6}
! Header version: 2018
! Port assignment regex: !\s*Touchstone port\s*([0-9]+)\s*=\s*(CST MWS port|CST DS port)\s*([0-9]+|Zmin|Zmax)\s*\(\"(.*)\"\)(\s*mode\s*([0-9]+))?.*
! Touchstone port assignment:
! Touchstone port 1 = CST MWS port Zmin ("") mode 1
! Touchstone port 2 = CST MWS port Zmin ("") mode 2
! Touchstone port 3 = CST MWS port Zmax ("") mode 1
! Touchstone port 4 = CST MWS port Zmax ("") mode 2
! S-Parameters are not renormalized. Unphysical impedance of 50 will be written to the file.
# GHz S RI R 50
0                              0               0                0               0                1  6.93190014e-06  -2.45111452e-09 -7.67597523e-08
                               0               0                0               0   1.02454764e-07 -2.87327848e-07                1  1.00543848e-05
                               0               0                0               0   1.12778153e-05  1.69884474e-06   1.73961068e-08 -9.63339684e-08
                               0               0                0               0   8.95583359e-08 -2.78193041e-07   6.56837832e-06  3.24963361e-06
0.06                           0               0                0               0      0.999999313  -0.00117195709   -1.5745886e-09 -2.88047628e-07
                               0               0                0               0   4.01959348e-08 -3.68932786e-07       0.99999932  -0.00116620935
                               0               0                0               0   3.09189041e-06  -0.00117865093   6.32702715e-09 -2.95864375e-07
                               0               0                0               0   3.50658868e-08 -3.65272965e-07   1.23803861e-06  -0.00117349288
0.1                            0               0                0               0      0.999996145  -0.00195787621  -1.24302814e-09 -4.28449934e-07
                               0               0                0               0   -1.2399593e-09 -4.22884643e-07      0.999996176  -0.00195036461
                               0               0                0               0  -3.84622418e-06  -0.00196556848   -1.2365947e-09 -4.28450072e-07
                               0               0                0               0   -1.2088089e-09  -4.2288466e-07  -3.81662236e-06    -0.001958008
0.12                           0               0                0               0      0.999991402  -0.00235082945  -1.15287342e-09 -4.98512799e-07
                               0               0                0               0   -2.1936316e-08 -4.49724033e-07      0.999991886  -0.00234243285
                               0               0                0               0  -7.75971925e-06   -0.0023590346  -5.07344119e-09 -4.94611215e-07
                               0               0                0               0  -1.93295128e-08 -4.51556924e-07  -6.79439815e-06  -0.00235027357
0.18                           0               0                0               0      0.999975417  -0.00352968518  -1.18403679e-09  -7.0814258e-07
                               0               0                0               0  -8.39366216e-08 -5.29691575e-07      0.999977249  -0.00351861911
                               0               0                0               0  -2.12787768e-05  -0.00353947053  -1.68031552e-08 -6.92562434e-07
                               0               0                0               0  -7.36227651e-08 -5.37034914e-07   -1.7530035e-05  -0.00352711024
0.24                           0               0                0               0      0.999956794   -0.0047085499  -1.66606058e-09 -9.16924142e-07
                               0               0                0               0  -1.45799516e-07 -6.08825296e-07      0.999959959  -0.00469479249
                               0               0                0               0  -3.74672489e-05  -0.00471997709  -2.88598887e-08 -8.89705842e-07
                               0               0                0               0  -1.27808676e-07 -6.21696831e-07  -3.09701804e-05  -0.00470402069
0.3                            0               0                0               0       0.99993553  -0.00588744282  -2.59683883e-09 -1.12484451e-06
                               0               0                0               0  -2.07519433e-07 -6.87114979e-07      0.999940013  -0.00587097204
                               0               0                0               0  -5.63273058e-05  -0.00590057267  -4.12413306e-08 -1.08602911e-06
                               0               0                0               0  -1.81881951e-07 -7.05532466e-07  -4.71163489e-05  -0.00588102274
0.36                           0               0                0               0      0.999911623  -0.00706638317  -3.97417599e-09 -1.33189057e-06
                               0               0                0               0  -2.69090704e-07   -7.645503e-07      0.999917409   -0.0070471768
                               0               0                0               0  -7.78613223e-05  -0.00708127564  -5.39450834e-08 -1.28151975e-06
                               0               0                0               0  -2.35837199e-07 -7.88531501e-07  -6.59702609e-05  -0.00705813424
0.42                           0               0                0               0       0.99988507  -0.00824539016  -5.79578493e-09 -1.53804905e-06
                               0               0                0               0  -3.30507554e-07 -8.41120832e-07      0.999892145  -0.00822342581
                               0               0                0               0  -0.000102071878  -0.00826210441  -6.69686608e-08 -1.47616517e-06
                               0               0                0               0  -2.89668922e-07 -8.70683516e-07  -8.75338436e-05  -0.00823537303
0.48                           0               0                0               0      0.999855868  -0.00942448301  -8.05928506e-09 -1.74330654e-06
                               0               0                0               0  -3.91764106e-07  -9.1681604e-07      0.999864219  -0.00939973811
                               0               0                0               0  -0.000128961756  -0.00944307738  -8.03094865e-08 -1.66995259e-06
                               0               0                0               0  -3.43371521e-07  -9.5197798e-07  -0.000111809231  -0.00941275696
0.54                           0               0                0               0      0.999824014   -0.0106036809  -1.07622003e-08 -1.94764945e-06
                               0               0                0               0  -4.52854373e-07 -9.91625282e-07      0.999833628   -0.0105761327
                               0               0                0               0  -0.000158533947   -0.0106242129  -9.39648916e-08 -1.86286911e-06
                               0               0                0               0  -3.96939291e-07 -1.03240426e-06  -0.000138798765   -0.0105903039
0.6                            0               0                0               0      0.999789506   -0.0117830031  -1.39019572e-08 -2.15106408e-06
                               0               0                0               0  -5.13772257e-07 -1.06553781e-06       0.99980037   -0.0117526287
                               0               0                0               0  -0.000190791648   -0.0118055295  -1.07932113e-07 -2.05490168e-06
                               0               0                0               0  -4.50366419e-07 -1.11195159e-06  -0.000168504994   -0.0117680318
0.66                           0               0                0               0      0.999752338   -0.0129624688  -1.74758826e-08 -2.35353655e-06
                               0               0                0               0  -5.74511551e-07 -1.13854276e-06      0.999764441   -0.0129292451
                               0               0                0               0   -0.00022573826   -0.0129870455  -1.22208293e-07  -2.2460371e-06
                               0               0                0               0  -5.03646984e-07 -1.19060914e-06  -0.000200930677   -0.0129459584
0.72                           0               0                0               0      0.999712508   -0.0141420972   -2.1481202e-08 -2.55505282e-06
                               0               0                0               0  -6.35065934e-07 -1.21062917e-06      0.999725838    -0.014106001
                               0               0                0               0  -0.000263377394   -0.0141687794  -1.36790473e-07 -2.43626201e-06
                               0               0                0               0   -5.5677495e-07 -1.26836591e-06  -0.000236078778   -0.0141241018
0.78                           0               0                0               0      0.999670011   -0.0153219075  -2.59150368e-08  -2.7555987e-06
                               0               0                0               0  -6.95428968e-07 -1.28178596e-06      0.999684557   -0.0152829153
                               0               0                0               0  -0.000303712867   -0.0153507496  -1.51675595e-07 -2.62556291e-06
                               0               0                0               0  -6.09744173e-07 -1.34521084e-06  -0.000273952475   -0.0153024798
0.84                           0               0                0               0      0.999624844    -0.016501919   -3.0774403e-08 -2.95515985e-06
                               0               0                0               0    -7.555941e-07 -1.35200192e-06      0.999640596   -0.0164600072
                               0               0                0               0  -0.000346748704   -0.0165329745  -1.66860502e-07 -2.81392613e-06
                               0               0                0               0  -6.62548389e-07 -1.42113271e-06  -0.000314555153   -0.0164811103
0.9                            0               0                0               0      0.999577002   -0.0176821507  -3.60562079e-08 -3.15372174e-06
                               0               0                0               0  -8.15554655e-07 -1.42126577e-06       0.99959395   -0.0176372956
                               0               0                0               0  -0.000392489141   -0.0177154727  -1.82341927e-07 -3.00133786e-06
                               0               0                0               0  -7.15181219e-07 -1.49612022e-06  -0.000357890406   -0.0176600114
0.96                           0               0                0               0       0.99952648    -0.018862622  -4.17572487e-08 -3.35126971e-06
                               0               0                0               0   -8.7530384e-07 -1.48956606e-06      0.999544615   -0.0188147996
                               0               0                0               0  -0.000440938621   -0.0188982625  -1.98116501e-07 -3.18778413e-06
                               0               0                0               0  -7.67636166e-07 -1.57016194e-06  -0.000403962043    -0.018839201
1.02                           0               0                0               0      0.999473273   -0.0200433521  -4.78742101e-08 -3.54778893e-06
                               0               0                0               0  -9.34834736e-07 -1.55689128e-06      0.999492587   -0.0199925383
                               0               0                0               0  -0.000492101801   -0.0200813625  -2.14180745e-07 -3.37325081e-06
                               0               0                0               0   -8.1990661e-07 -1.64324633e-06  -0.000452774082    -0.020018697
1.08                           0               0                0               0      0.999417377   -0.0212243601  -5.44036614e-08 -3.74326437e-06
                               0               0                0               0  -9.94140298e-07 -1.62322975e-06      0.999437861   -0.0211705306
                               0               0                0               0  -0.000545983544   -0.0212647912  -2.30531067e-07  -3.5577236e-06
                               0               0                0               0  -8.71985807e-07  -1.7153617e-06  -0.000504330754   -0.0211985175
1.14                           0               0                0               0      0.999358786   -0.0224056653  -6.13420546e-08 -3.93768087e-06
                               0               0                0               0  -1.05321335e-06 -1.68856972e-06      0.999380433   -0.0223487957
                               0               0                0               0   -0.00060258893   -0.0224485669  -2.47163763e-07 -3.74118804e-06
                               0               0                0               0   -9.2386689e-07 -1.78649629e-06  -0.000558636502   -0.0223786805
1.2                            0               0                0               0      0.999297495   -0.0235872869   -6.8685722e-08 -4.13102309e-06
                               0               0                0               0   -1.1120466e-06 -1.75289928e-06      0.999320297   -0.0235273526
                               0               0                0               0  -0.000661923247   -0.0236327083  -2.64075014e-07 -3.92362952e-06
                               0               0                0               0  -9.75542861e-07 -1.85663817e-06  -0.000615695986    -0.023559204
1.26                           0               0                0               0      0.999233498   -0.0247692442  -7.64308733e-08 -4.32327551e-06
                               0               0                0               0  -1.17063261e-06 -1.81620643e-06      0.999257449   -0.0247062203
                               0               0                0               0     -0.000723992   -0.0248172339  -2.81260882e-07 -4.10503325e-06
                               0               0                0               0  -1.02700659e-06 -1.92577533e-06  -0.000675514075   -0.0247401059
1.32                           0               0                0               0       0.99916679   -0.0259515562  -8.45735934e-08 -4.51442243e-06
                               0               0                0               0  -1.22896381e-06 -1.87847904e-06      0.999191883   -0.0258854179
                               0               0                0               0  -0.000788800907   -0.0260021622  -2.98717309e-07 -4.28538428e-06
                               0               0                0               0  -1.07825083e-06 -1.99389561e-06  -0.000738095859   -0.0259214045
1.38                           0               0                0               0      0.999097363   -0.0271342424  -9.31098399e-08   -4.704448e-06
                               0               0                0               0   -1.2870325e-06 -1.93970484e-06      0.999123593   -0.0270649645
                               0               0                0               0  -0.000856355899   -0.0271875117  -3.16440112e-07 -4.46466748e-06
                               0               0                0               0  -1.12926818e-06 -2.06098674e-06  -0.000803446641   -0.0271031178
1.44                           0               0                0               0      0.999025213   -0.0283173218   -1.0203544e-07 -4.89333618e-06
                               0               0                0               0  -1.34483083e-06 -1.99987146e-06      0.999052575   -0.0282448791
                               0               0                0               0  -0.000926663126   -0.0283733011  -3.34424986e-07 -4.64286755e-06
                               0               0                0               0  -1.18005111e-06 -2.12703631e-06  -0.000871571941   -0.0282852638
1.5                            0               0                0               0      0.998950331   -0.0295008138  -1.11346088e-07 -5.08107074e-06
                               0               0                0               0  -1.40235081e-06  -2.0589664e-06      0.998978821   -0.0294251809
                               0               0                0               0  -0.000999728953   -0.0295595488  -3.52667495e-07 -4.81996903e-06
                               0               0                0               0  -1.23059195e-06  -2.1920318e-06  -0.000942477496   -0.0294678606
1.56                           0               0                0               0      0.998872713   -0.0306847376  -1.21037344e-07 -5.26763527e-06
                               0               0                0               0  -1.45958432e-06 -2.11697703e-06      0.998902326   -0.0306058888
                               0               0                0               0   -0.00107555996   -0.0307462734  -3.71163072e-07 -4.99595627e-06
                               0               0                0               0  -1.28088289e-06 -2.25596054e-06   -0.00101616926   -0.0306509264
1.62                           0               0                0               0      0.998792349   -0.0318691125  -1.31104627e-07 -5.45301321e-06
                               0               0                0               0  -1.51652307e-06 -2.17389058e-06      0.998823083    -0.031787022
                               0               0                0               0   -0.00115416296   -0.0319334935  -3.89907019e-07 -5.17081346e-06
                               0               0                0               0  -1.33091597e-06 -2.31880975e-06   -0.00109265342   -0.0318344793
1.68                           0               0                0               0      0.998709235   -0.0330539576  -1.41543218e-07 -5.63718776e-06
                               0               0                0               0  -1.57315865e-06 -2.22969418e-06      0.998741085   -0.0329685996
                               0               0                0               0   -0.00123554497   -0.0331212279    -4.088945e-07 -5.34452458e-06
                               0               0                0               0   -1.3806831e-06 -2.38056652e-06   -0.00117193636   -0.0330185375
1.74                           0               0                0               0      0.998623361   -0.0342392922  -1.52348252e-07 -5.82014199e-06
                               0               0                0               0  -1.62948248e-06 -2.28437481e-06      0.998656326   -0.0341506406
                               0               0                0               0   -0.00131971322   -0.0343094949  -4.28120538e-07 -5.51707347e-06
                               0               0                0               0  -1.43017602e-06  -2.4412178e-06   -0.00125402471   -0.0342031191
1.8                            0               0                0               0      0.998534721   -0.0354251357  -1.63514718e-07 -6.00185874e-06
                               0               0                0               0  -1.68548582e-06 -2.33791932e-06      0.998568798   -0.0353331642
                               0               0                0               0   -0.00140667519   -0.0354983134  -4.47580019e-07 -5.68844375e-06
                               0               0                0               0  -1.47938633e-06 -2.50075039e-06    -0.0013389253   -0.0353882423
1.86                           0               0                0               0      0.998443306   -0.0366115073  -1.75037453e-07 -6.18232068e-06
                               0               0                0               0  -1.74115979e-06 -2.39031444e-06      0.998478495   -0.0365161894
                               0               0                0               0   -0.00149643856   -0.0366877019   -4.6726768e-07 -5.85861888e-06
                               0               0                0               0  -1.52830548e-06   -2.559151e-06    -0.0014266452   -0.0365739254
1.92                           0               0                0               0      0.998349109   -0.0377984262  -1.86911144e-07 -6.36151028e-06
                               0               0                0               0  -1.79649534e-06 -2.44154675e-06      0.998385408   -0.0376997355
                               0               0                0               0   -0.00158901125   -0.0378776791  -4.87178112e-07 -6.02758211e-06
                               0               0                0               0  -1.57692474e-06 -2.61640617e-06    -0.0015171917   -0.0377601865
1.98                           0               0                0               0      0.998252121   -0.0389859118  -1.99130319e-07 -6.53940982e-06
                               0               0                0               0  -1.85148326e-06 -2.49160272e-06       0.99828953   -0.0388838214
                               0               0                0               0   -0.00168440139   -0.0390682637  -5.07305755e-07 -6.19531654e-06
                               0               0                0               0  -1.62523524e-06  -2.6725023e-06    -0.0016105723   -0.0389470439
2.04                           0               0                0               0      0.998152334   -0.0401739833  -2.11689348e-07 -6.71600137e-06
                               0               0                0               0  -1.90611418e-06 -2.54046865e-06      0.998190852   -0.0400684665
                               0               0                0               0   -0.00178261735   -0.0402594743  -5.27644895e-07 -6.36180504e-06
                               0               0                0               0  -1.67322795e-06 -2.72742569e-06   -0.00170679476   -0.0401345159
2.1                            0               0                0               0      0.998049738   -0.0413626601  -2.24582439e-07 -6.89126683e-06
                               0               0                0               0  -1.96037855e-06 -2.58813074e-06      0.998089367   -0.0412536897
                               0               0                0               0   -0.00188366771   -0.0414513298   -5.4818966e-07  -6.5270303e-06
                               0               0                0               0  -1.72089366e-06 -2.78116245e-06   -0.00180586704   -0.0413226206
2.16                           0               0                0               0      0.997944326   -0.0425519615  -2.37803631e-07 -7.06518786e-06
                               0               0                0               0  -2.01426666e-06 -2.63457503e-06      0.997985066   -0.0424395102
                               0               0                0               0    -0.0019875613   -0.0426438487  -5.68934021e-07 -6.69097482e-06
                               0               0                0               0  -1.76822301e-06 -2.83369858e-06   -0.00190779734   -0.0425113766
2.22                           0               0                0               0      0.997836087   -0.0437419067  -2.51346797e-07 -7.23774596e-06
                               0               0                0               0  -2.06776861e-06 -2.67978742e-06       0.99787794   -0.0436259472
                               0               0                0               0   -0.00209430716   -0.0438370498  -5.89871781e-07 -6.85362091e-06
                               0               0                0               0  -1.81520644e-06 -2.88501995e-06   -0.00201259408   -0.0437008019
2.28                           0               0                0               0      0.997725013   -0.0449325152  -2.65205635e-07 -7.40892238e-06
                               0               0                0               0  -2.12087436e-06 -2.72375369e-06      0.997767981   -0.0448130199
                               0               0                0               0   -0.00220391459    -0.045030952   -6.1099658e-07 -7.01495066e-06
                               0               0                0               0  -1.86183425e-06 -2.93511224e-06   -0.00212026593   -0.0448909151
2.34                           0               0                0               0      0.997611093   -0.0461238062  -2.79373669e-07 -7.57869822e-06
                               0               0                0               0  -2.17357364e-06 -2.76645944e-06      0.997655179   -0.0460007475
                               0               0                0               0   -0.00231639309   -0.0462255739  -6.32301885e-07 -7.17494597e-06
                               0               0                0               0  -1.90809653e-06 -2.98396105e-06   -0.00223082178   -0.0460817343
2.4                            0               0                0               0      0.997494317   -0.0473157991  -2.93844239e-07 -7.74705431e-06
                               0               0                0               0  -2.22585604e-06 -2.80789017e-06      0.997539525   -0.0471891491
                               0               0                0               0   -0.00243175241   -0.0474209343  -6.53780993e-07 -7.33358856e-06
                               0               0                0               0  -1.95398321e-06 -3.03155177e-06   -0.00234427076   -0.0472732781
2.46                           0               0                0               0      0.997374677   -0.0485085133  -3.08610506e-07 -7.91397131e-06
                               0               0                0               0  -2.27771094e-06  -2.8480312e-06      0.997421008   -0.0483782439
                               0               0                0               0   -0.00255000254   -0.0486170521  -6.75427018e-07 -7.49085989e-06
                               0               0                0               0  -1.99948403e-06 -3.07786968e-06   -0.00246062222   -0.0484655648
2.52                           0               0                0               0       0.99725216   -0.0497019681  -3.23665441e-07 -8.07942965e-06
                               0               0                0               0  -2.32912754e-06 -2.88686774e-06      0.997299621   -0.0495680511
                               0               0                0               0    -0.0026711537    -0.049813946    -6.972329e-07 -7.64674128e-06
                               0               0                0               0  -2.04458855e-06 -3.12289991e-06   -0.00257988577   -0.0496586127
2.58                           0               0                0               0      0.997126757   -0.0508961829  -3.39001825e-07 -8.24340955e-06
                               0               0                0               0  -2.38009484e-06 -2.92438482e-06      0.997175351     -0.05075859
                               0               0                0               0   -0.00279521635   -0.0510116349  -7.19191389e-07 -7.80121378e-06
                               0               0                0               0  -2.08928612e-06 -3.16662744e-06   -0.00270207125   -0.0508524405
2.64                           0               0                0               0      0.996998456   -0.0520911771  -3.54612242e-07 -8.40589102e-06
                               0               0                0               0  -2.43060164e-06 -2.96056733e-06      0.997048189   -0.0519498798
                               0               0                0               0   -0.00292220118   -0.0522101377   -7.4129505e-07 -7.95425827e-06
                               0               0                0               0  -2.13356593e-06 -3.20903707e-06   -0.00282718872   -0.0520470664
2.7                            0               0                0               0      0.996867248   -0.0532869702   -3.7048908e-07 -8.56685383e-06
                               0               0                0               0  -2.48063657e-06 -2.99540004e-06      0.996918125   -0.0531419397
                               0               0                0               0   -0.00305211915   -0.0534094732  -7.63536255e-07  -8.1058554e-06
                               0               0                0               0  -2.17741693e-06 -3.25011349e-06   -0.00295524852   -0.0532425089
2.76                           0               0                0               0      0.996733119   -0.0544835814  -3.86624522e-07 -8.72627756e-06
                               0               0                0               0  -2.53018801e-06 -3.02886752e-06      0.996785147    -0.054334789
                               0               0                0               0   -0.00318498144   -0.0546096602  -7.85907179e-07 -8.25598561e-06
                               0               0                0               0  -2.22082791e-06 -3.28984122e-06   -0.00308626119   -0.0544387866
2.82                           0               0                0               0      0.996596059   -0.0556810303  -4.03010545e-07 -8.88414152e-06
                               0               0                0               0  -2.57924418e-06 -3.06095422e-06      0.996649244   -0.0555284469
                               0               0                0               0   -0.00332079948   -0.0558107178  -8.08399799e-07 -8.40462911e-06
                               0               0                0               0  -2.26378743e-06  -3.3282046e-06   -0.00322023755    -0.055635918
2.88                           0               0                0               0      0.996456055   -0.0568793362  -4.19638915e-07 -9.04042485e-06