! TOUCHSTONE file generated by CST MICROWAVE STUDIO
! Date and time: Tue Apr 15 13:20:24 2025
! Project name: rogers4003c_one_layer_for_sub_weight.cst
! Parameters = {h=2.5; lambda=10; period=5; phi=0; theta=0; thickness=0.508; w_mesh_1=2; w_mesh_2=2; w_patch_1=1.6; w_patch_2=1.6}
! Header version: 2018
! Port assignment regex: !\s*Touchstone port\s*([0-9]+)\s*=\s*(CST MWS port|CST DS port)\s*([0-9]+|Zmin|Zmax)\s*\(\"(.*)\"\)(\s*mode\s*([0-9]+))?.*
! Touchstone port assignment:
! Touchstone port 1 = CST MWS port Zmin ("") mode 1
! Touchstone port 2 = CST MWS port Zmin ("") mode 2
! Touchstone port 3 = CST MWS port Zmax ("") mode 1
! Touchstone port 4 = CST MWS port Zmax ("") mode 2
! S-Parameters are not renormalized. Unphysical impedance of 50 will be written to the file.
# GHz S RI R 50
0                              0               0                0               0      0.999977326 -5.73163737e-05   7.27804267e-07  5.95546825e-07
                               0               0                0               0   1.25261838e-06  5.99850626e-07      0.999999997 -7.34399111e-05
                               0               0                0               0   2.42732482e-05 -2.37336874e-05  -1.41557467e-08  3.56487428e-07
                               0               0                0               0   6.71407087e-07  7.62453136e-07   2.34542415e-05  6.06826131e-08
0.06                           0               0                0               0      0.999978981  -0.00059735358   2.67521344e-07 -2.94021016e-06
                               0               0                0               0   4.75351454e-07    -2.94304e-06      0.999990575 -0.000609107951
                               0               0                0               0  -8.12296819e-07   -0.0030939223  -2.89590781e-08 -3.03281405e-06
                               0               0                0               0   2.44049279e-07 -2.87765673e-06  -1.15591016e-06  -0.00308990499
0.1                            0               0                0               0      0.999974492 -0.000958079254   -4.8112808e-08 -5.28997472e-06
                               0               0                0               0  -4.80848529e-08 -5.29572504e-06       0.99997442 -0.000967051035
                               0               0                0               0  -2.07665686e-05  -0.00514096105  -5.37638213e-08 -5.28992857e-06
                               0               0                0               0  -5.37798843e-08 -5.29567802e-06   -2.0847789e-05  -0.00514992666
0.12                           0               0                0               0       0.99997057  -0.00113865214  -2.08559124e-07  -6.4626089e-06
                               0               0                0               0   -3.1137589e-07 -6.46927779e-06      0.999964762  -0.00114627171
                               0               0                0               0  -3.17147621e-05  -0.00616455333  -7.06521312e-08 -6.41771352e-06
                               0               0                0               0  -2.06556123e-07 -6.50204027e-06  -3.16809641e-05  -0.00617995029
0.18                           0               0                0               0      0.999952089  -0.00168121023  -7.00396654e-07 -9.97141407e-06
                               0               0                0               0  -1.10752163e-06 -9.97870753e-06      0.999929451  -0.00168492921
                               0               0                0               0  -6.84512139e-05  -0.00923561786  -1.39279784e-07 -9.79779222e-06
                               0               0                0               0  -6.80268412e-07 -1.01104021e-05  -6.81363515e-05  -0.00927007011
0.24                           0               0                0               0      0.999923532  -0.00222502636  -1.20794869e-06 -1.34663881e-05
                               0               0                0               0  -1.91304244e-06  -1.3471172e-05      0.999884625  -0.00222507822
                               0               0                0               0   -0.00011103902   -0.0123071071  -2.34881605e-07 -1.31726273e-05
                               0               0                0               0  -1.17694405e-06 -1.37024463e-05  -0.000110537839   -0.0123602594
0.3                            0               0                0               0      0.999884895  -0.00277009932  -1.73117055e-06 -1.69472912e-05
                               0               0                0               0  -2.72789367e-06 -1.69465117e-05      0.999830269  -0.00276671677
                               0               0                0               0  -0.000159495857   -0.0153790123  -3.57491754e-07 -1.65417918e-05
                               0               0                0               0  -1.69643663e-06 -1.72778762e-05  -0.000158901532   -0.0154505133
0.36                           0               0                0               0      0.999836171  -0.00331642825  -2.27001541e-06 -2.04138812e-05
                               0               0                0               0  -3.55202931e-06 -2.04045652e-05      0.999766366  -0.00330984312
                               0               0                0               0  -0.000213839711   -0.0184513248  -5.07138886e-07 -1.99048548e-05
                               0               0                0               0  -2.23859688e-06 -2.08363944e-05  -0.000213243882   -0.0185408268
0.42                           0               0                0               0      0.999777354  -0.00386401257  -2.82443421e-06 -2.38659139e-05
                               0               0                0               0  -4.38540191e-06 -2.38451689e-05      0.999692898  -0.00385445582
                               0               0                0               0  -0.000274088889   -0.0215240361  -6.83846056e-07 -2.32613813e-05
                               0               0                0               0  -2.80327262e-06 -2.43777028e-05  -0.000273581692   -0.0216311953
0.48                           0               0                0               0       0.99970844  -0.00441285202  -3.39437566e-06 -2.73031424e-05
                               0               0                0               0   -5.2279626e-06 -2.72681569e-05      0.999609848  -0.00440055365
                               0               0                0               0  -0.000340262017   -0.0245971378  -8.87630618e-07 -2.66109324e-05
                               0               0                0               0  -3.39030871e-06 -2.79015028e-05  -0.000339932118   -0.0247216141
0.54                           0               0                0               0      0.999629421  -0.00496294665  -3.97978617e-06 -3.07253178e-05
                               0               0                0               0  -6.07966102e-06 -3.06733613e-05      0.999517199  -0.00494813567
                               0               0                0               0  -0.000412378051   -0.0276706213  -1.11850413e-06 -2.99530651e-05
                               0               0                0               0  -3.99954707e-06 -3.14074949e-05  -0.000412312678   -0.0278120786
0.6                            0               0                0               0      0.999540291  -0.00551429681  -4.58060979e-06 -3.41321886e-05
                               0               0                0               0  -6.94044529e-06 -3.40606117e-05      0.999414934  -0.00549720116
                               0               0                0               0   -0.00049045628   -0.0307444785  -1.37647226e-06 -3.32873327e-05
                               0               0                0               0   -4.6308266e-06 -3.48953788e-05  -0.000490741256   -0.0309025842
0.66                           0               0                0               0      0.999441044  -0.00606690316  -5.19678819e-06 -3.75235013e-05
                               0               0                0               0  -7.81026194e-06 -3.74297358e-05      0.999303035  -0.00604774969
                               0               0                0               0  -0.000574516332    -0.033818701  -1.66153468e-06 -3.66132846e-05
                               0               0                0               0  -5.28398318e-06 -3.83648536e-05  -0.000575236108   -0.0339931266
0.72                           0               0                0               0      0.999331671  -0.00662076666  -5.82826059e-06 -4.08989995e-05
                               0               0                0               0  -8.68905594e-06 -4.07805587e-05      0.999181485  -0.00659978107
                               0               0                0               0  -0.000664578177   -0.0368932808  -1.97368496e-06 -3.99304661e-05
                               0               0                0               0  -5.95884963e-06 -4.18156177e-05  -0.000665815865   -0.0370837014
0.78                           0               0                0               0      0.999212167  -0.00717588857  -6.47496371e-06 -4.42584248e-05
                               0               0                0               0  -9.57677057e-06 -4.41129034e-05      0.999050266  -0.00715329535
                               0               0                0               0  -0.000760662135   -0.0399682098  -2.31291049e-06 -4.32384191e-05
                               0               0                0               0  -6.65525567e-06 -4.52473686e-05  -0.000762499541   -0.0401743044
0.84                           0               0                0               0      0.999082523  -0.00773227044  -7.13683174e-06 -4.76015163e-05
                               0               0                0               0  -1.04733474e-05 -4.74265905e-05      0.998909359  -0.00770829286
                               0               0                0               0  -0.000862788883   -0.0430434798  -2.67919238e-06 -4.65366815e-05
                               0               0                0               0   -7.3730279e-06 -4.86598029e-05  -0.000865306539   -0.0432649313
0.9                            0               0                0               0      0.998942731  -0.00828991414  -7.81379625e-06 -5.09280104e-05
                               0               0                0               0  -1.13787264e-05 -5.07214383e-05      0.998758747  -0.00826477417
                               0               0                0               0  -0.000970979456   -0.0461190832  -3.07250532e-06 -4.98247876e-05
                               0               0                0               0  -8.11198974e-06 -5.20526167e-05  -0.000974256653    -0.046355578
0.96                           0               0                0               0      0.998792783   -0.0088488218  -8.50578617e-06 -5.42376414e-05
                               0               0                0               0  -1.22928455e-05 -5.39972627e-05      0.998598411  -0.00882274009
                               0               0                0               0   -0.00108525526   -0.0491950118  -3.49281755e-06  -5.3102268e-05
                               0               0                0               0  -8.87196144e-06 -5.54255051e-05   -0.00108937008   -0.0494462405
1.02                           0               0                0               0      0.998632671  -0.00940899588  -9.21272772e-06 -5.75301408e-05
                               0               0                0               0  -1.32156411e-05 -5.72538772e-05      0.998428332  -0.00938219172
                               0               0                0               0   -0.00120563806    -0.052271258  -3.94009068e-06 -5.63686498e-05
                               0               0                0               0  -9.65275997e-06 -5.87781624e-05   -0.00121066741   -0.0525369148
1.08                           0               0                0               0      0.998462387  -0.00997043912  -9.93454436e-06 -6.08052379e-05
                               0               0                0               0  -1.41470475e-05 -6.04910928e-05      0.998248492  -0.00994313036
                               0               0                0               0   -0.00133215001   -0.0553478141  -4.41427966e-06 -5.96234563e-05
                               0               0                0               0   -1.0454199e-05  -6.2110282e-05   -0.00133816966    -0.055627597
1.14                           0               0                0               0       0.99828192   -0.0105331545  -1.06711567e-05 -6.40626592e-05
                               0               0                0               0  -1.50869972e-05 -6.37087181e-05      0.998058871   -0.0105055576
                               0               0                0               0   -0.00146481365   -0.0584246724  -4.91533263e-06 -6.28662074e-05
                               0               0                0               0   -1.1276089e-05 -6.54215566e-05   -0.00147189826   -0.0587182832
1.2                            0               0                0               0      0.998091261   -0.0110971454  -1.14224826e-05 -6.73021287e-05
                               0               0                0               0  -1.60354206e-05 -6.69065593e-05      0.997859451   -0.0110694753
                               0               0                0               0   -0.00160365191   -0.0615018252  -5.44319087e-06 -6.60964197e-05
                               0               0                0               0   -1.2118237e-05 -6.87116779e-05   -0.00161187504   -0.0618089696
1.26                           0               0                0               0      0.997890402   -0.0116624154  -1.21884368e-05 -7.05233681e-05
                               0               0                0               0  -1.69922462e-05   -7.008442e-05      0.997650212   -0.0116348855
                               0               0                0               0   -0.00174868809    -0.064579265  -5.99778863e-06 -6.93136061e-05
                               0               0                0               0  -1.29804466e-05 -7.19803367e-05   -0.00175812228   -0.0648996525
1.32                           0               0                0               0      0.997679331   -0.0122289684  -1.29689312e-05 -7.37260962e-05
                               0               0                0               0  -1.79574004e-05 -7.32421011e-05      0.997431134   -0.0122017905
                               0               0                0               0   -0.00189994593   -0.0676569845  -6.57905309e-06 -7.25172762e-05
                               0               0                0               0  -1.38625179e-05 -7.52272229e-05    -0.0019106627   -0.0679903283
1.38                           0               0                0               0      0.997458039   -0.0127968085  -1.37638744e-05 -7.69100294e-05
                               0               0                0               0  -1.89308074e-05 -7.63794013e-05      0.997202197   -0.0127701929
                               0               0                0               0   -0.00205744954    -0.070734976  -7.18690423e-06 -7.57069364e-05
                               0               0                0               0  -1.47642477e-05 -7.84520258e-05   -0.00206951944   -0.0710809932
1.44                           0               0                0               0      0.997226514   -0.0133659401  -1.45731723e-05 -8.00748814e-05
                               0               0                0               0  -1.99123893e-05 -7.94961165e-05      0.996963381   -0.0133400955
                               0               0                0               0   -0.00222122347   -0.0738132323  -7.82125473e-06 -7.88820898e-05
                               0               0                0               0  -1.56854291e-05 -8.16544332e-05    -0.0022347161   -0.0741716438
1.5                            0               0                0               0      0.996984745   -0.0139363681  -1.53967272e-05 -8.32203633e-05
                               0               0                0               0   -2.0902066e-05 -8.25920399e-05      0.996714667   -0.0139115015
                               0               0                0               0   -0.00239129269   -0.0768917461  -8.48200988e-06 -8.20422362e-05
                               0               0                0               0  -1.66258517e-05 -8.48341324e-05   -0.00240627671   -0.0772622765
1.56                           0               0                0               0      0.996732722   -0.0145080973  -1.62344383e-05 -8.63461834e-05
                               0               0                0               0  -2.18997549e-05 -8.56669621e-05      0.996456032    -0.014484414
                               0               0                0               0   -0.00256768257   -0.0799705101  -9.16906746e-06 -8.51868724e-05
                               0               0                0               0  -1.75853014e-05 -8.79908096e-05   -0.00258422579   -0.0803528879
1.62                           0               0                0               0      0.996470433   -0.0150811331  -1.70862016e-05 -8.94520477e-05
                               0               0                0               0  -2.29053712e-05 -8.87206712e-05      0.996187456   -0.0150588366
                               0               0                0               0   -0.00275041894    -0.083049517  -9.88231766e-06 -8.83154919e-05
                               0               0                0               0  -1.85635603e-05 -9.11241501e-05   -0.00276858831   -0.0834434745
1.68                           0               0                0               0      0.996197864   -0.0156554809  -1.79519095e-05  -9.2537659e-05
                               0               0                0               0  -2.39188276e-05 -9.17529524e-05      0.995908918   -0.0156347732
                               0               0                0               0   -0.00293952805   -0.0861287597   -1.0621643e-05 -9.14275853e-05
                               0               0                0               0  -1.95604071e-05  -9.4233838e-05    -0.0029593897   -0.0865340328
1.74                           0               0                0               0      0.995915004   -0.0162311466  -1.88314512e-05 -9.56027179e-05
                               0               0                0               0  -2.49400345e-05 -9.47635882e-05      0.995620396   -0.0162122278
                               0               0                0               0   -0.00313503661    -0.089208231   -1.1386918e-05 -9.45226403e-05
                               0               0                0               0  -2.05756164e-05 -9.73195566e-05   -0.00315665589   -0.0896245597
1.8                            0               0                0               0      0.995621839   -0.0168081363  -1.97247121e-05 -9.86469219e-05
                               0               0                0               0  -2.59688996e-05 -9.77523584e-05      0.995321869   -0.0167912046
                               0               0                0               0   -0.00333697176   -0.0922879238  -1.21780096e-05 -9.76001415e-05
                               0               0                0               0   -2.1608959e-05 -0.000100380988   -0.00336041327   -0.0927150517
1.86                           0               0                0               0      0.995318357   -0.0173864562  -2.06315741e-05 -0.000101669966
                               0               0                0               0   -2.7005328e-05  -0.00010071904      0.995013314   -0.0173717081
                               0               0                0               0   -0.00354536113   -0.0953678312  -1.29947765e-05 -0.000100659571
                               0               0                0               0  -2.26602018e-05 -0.000103417814   -0.00357068873   -0.0958055056
1.92                           0               0                0               0      0.995004544    -0.017966113  -2.15519157e-05 -0.000104671542
                               0               0                0               0  -2.80492223e-05 -0.000103663407       0.99469471   -0.0179537431
                               0               0                0               0   -0.00376023278    -0.098447946  -1.38370692e-05 -0.000103700407
                               0               0                0               0   -2.3729108e-05 -0.000106429714   -0.00378750968   -0.0988959181
1.98                           0               0                0               0      0.994680385   -0.0185471135  -2.24856112e-05  -0.00010765134
                               0               0                0               0   -2.9100482e-05 -0.000106585231      0.994366033   -0.0185373146
                               0               0                0               0   -0.00398161527    -0.101528261  -1.47047303e-05 -0.000106722127
                               0               0                0               0  -2.48154362e-05 -0.000109416367   -0.00401090399    -0.101986286
2.04                           0               0                0               0      0.994345866   -0.0191294648  -2.34325313e-05 -0.000110609046
                               0               0                0               0  -3.01590043e-05  -0.00010948428       0.99402726   -0.0191224277
                               0               0                0               0   -0.00420953761     -0.10460877  -1.55975938e-05 -0.000109724204
                               0               0                0               0  -2.59189416e-05 -0.000112377452   -0.00424090008    -0.105076606
2.1                            0               0                0               0      0.994000972   -0.0197131742  -2.43925429e-05 -0.000113544343
                               0               0                0               0  -3.12246831e-05 -0.000112360321      0.993678368    -0.019709088
                               0               0                0               0   -0.00444402932    -0.107689465  -1.65154853e-05  -0.00011270611
                               0               0                0               0  -2.70393746e-05 -0.000115312644   -0.00447752686    -0.108166875
2.16                           0               0                0               0      0.993645688   -0.0202982493  -2.53655087e-05 -0.000116456914
                               0               0                0               0  -3.22974097e-05 -0.000115213114      0.993319334    -0.020297301
                               0               0                0               0   -0.00468512041     -0.11077034   -1.7458222e-05 -0.000115667312
                               0               0                0               0  -2.81764819e-05 -0.000118221621   -0.00472081377     -0.11125709
2.22                           0               0                0               0      0.993279997    -0.020884698  -2.63512876e-05 -0.000119346435
                               0               0                0               0   -3.3377072e-05 -0.000118042421      0.992950133   -0.0208870726
                               0               0                0               0   -0.00493284137    -0.113851388  -1.84256124e-05 -0.000118607278
                               0               0                0               0  -2.93300056e-05 -0.000121104057   -0.00497079081    -0.114347247
2.28                           0               0                0               0      0.992903885   -0.0214725283  -2.73497341e-05 -0.000122212582
                               0               0                0               0  -3.44635552e-05 -0.000120847998      0.992570741   -0.0214784091
                               0               0                0               0   -0.00518722322    -0.116932601  -1.94174561e-05  -0.00012152547
                               0               0                0               0  -3.04996835e-05 -0.000123959625   -0.00522748847    -0.117437344
2.34                           0               0                0               0      0.992517333   -0.0220617486  -2.83606985e-05 -0.000125055028
                               0               0                0               0  -3.55567411e-05 -0.000123629598      0.992181134   -0.0220713166
                               0               0                0               0   -0.00544829747    -0.120013973  -2.04335442e-05 -0.000124421351
                               0               0                0               0   -3.1685249e-05 -0.000126787998   -0.00549093783    -0.120527377
2.4                            0               0                0               0      0.992120325   -0.0226523674  -2.93840271e-05 -0.000127873441
                               0               0                0               0  -3.66565083e-05 -0.000126386972      0.991781286   -0.0226658018
                               0               0                0               0   -0.00571609616    -0.123095498  -2.14736584e-05  -0.00012729438
                               0               0                0               0  -3.28864312e-05 -0.000129588847   -0.00576117049    -0.123617343
2.46                           0               0                0               0      0.991712843   -0.0232443935  -3.04195613e-05 -0.000130667489
                               0               0                0               0  -3.77627321e-05 -0.000129119868      0.991371171   -0.0232618715
                               0               0                0               0   -0.00599065187    -0.126177167  -2.25375718e-05 -0.000130144013
                               0               0                0               0  -3.41029542e-05 -0.000132361842   -0.00603821862    -0.126707239
2.52                           0               0                0               0      0.991294869   -0.0238378359  -3.14671384e-05 -0.000133436835
                               0               0                0               0  -3.88752845e-05  -0.00013182803      0.990950765   -0.0238595325
                               0               0                0               0   -0.00627199769    -0.129258975   -2.3625048e-05 -0.000132969707
                               0               0                0               0  -3.53345379e-05 -0.000135106653   -0.00632211498    -0.129797062
2.58                           0               0                0               0      0.990866384   -0.0244327039  -3.25265909e-05  -0.00013618114
                               0               0                0               0  -3.99940338e-05   -0.0001345112      0.990520041   -0.0244587922
                               0               0                0               0   -0.00656016728    -0.132340914  -2.47358415e-05 -0.000135770913
                               0               0                0               0  -3.65808972e-05 -0.000137822946   -0.00661289287    -0.132886809
2.64                           0               0                0               0       0.99042737   -0.0250290069  -3.35977468e-05 -0.000138900061
                               0               0                0               0  -4.11188449e-05 -0.000137169115      0.990078971    -0.025059658
                               0               0                0               0   -0.00685519483    -0.135422978  -2.58696973e-05 -0.000138547083
                               0               0                0               0  -3.78417422e-05 -0.000140510389   -0.00691058618    -0.135976476
2.7                            0               0                0               0      0.989977807   -0.0256267546  -3.46804292e-05 -0.000141593254
                               0               0                0               0   -4.2249579e-05 -0.000139801512       0.98962753   -0.0256621373
                               0               0                0               0    -0.0071571151    -0.138505159  -2.70263511e-05 -0.000141297667
                               0               0                0               0  -3.91167782e-05 -0.000143168646   -0.00721522942     -0.13906606
2.76                           0               0                0               0      0.989517674   -0.0262259568  -3.57744563e-05  -0.00014426037
                               0               0                0               0  -4.33860935e-05  -0.00014240812       0.98916569   -0.0262662382
                               0               0                0               0    -0.0074659634    -0.141587451  -2.82055288e-05 -0.000144022112
                               0               0                0               0  -4.04057056e-05 -0.000145797382   -0.00752685765    -0.142155558
2.82                           0               0                0               0      0.989046952   -0.0268266238  -3.68796414e-05 -0.000146901058
                               0               0                0               0   -4.4528242e-05  -0.00014498867      0.988693423   -0.0268719685
                               0               0                0               0   -0.00778177563    -0.144669847  -2.94069466e-05 -0.000146719864
                               0               0                0               0  -4.17082195e-05 -0.000148396261   -0.00784550658    -0.145244967
2.88                           0               0                0               0      0.988565619   -0.0274287658  -3.79957928e-05 -0.000149514964