! TOUCHSTONE file generated by CST MICROWAVE STUDIO
! Date and time: Tue May  6 13:55:34 2025
! Project name: rogers4003c_one_layer_for_sub_weight.cst
! Parameters = {h=2.5; lambda=10; period=5; phi=0; theta=0; thickness=0.508; w_mesh_1=2; w_mesh_2=2; w_patch_1=1.6; w_patch_2=1.6}
! Header version: 2018
! Port assignment regex: !\s*Touchstone port\s*([0-9]+)\s*=\s*(CST MWS port|CST DS port)\s*([0-9]+|Zmin|Zmax)\s*\(\"(.*)\"\)(\s*mode\s*([0-9]+))?.*
! Touchstone port assignment:
! Touchstone port 1 = CST MWS port Zmin ("") mode 1
! Touchstone port 2 = CST MWS port Zmin ("") mode 2
! Touchstone port 3 = CST MWS port Zmax ("") mode 1
! Touchstone port 4 = CST MWS port Zmax ("") mode 2
! S-Parameters are not renormalized. Unphysical impedance of 50 will be written to the file.
# GHz S RI R 50
0                              0               0                0               0      0.999999997 -7.14952862e-05   5.33839059e-07  -1.7587847e-07
                               0               0                0               0   1.07229119e-06  6.95151749e-07      0.999999999 -3.86175221e-05
                               0               0                0               0    1.6154584e-05 -3.11242905e-05   6.97029816e-07  8.40012895e-07
                               0               0                0               0   1.72366074e-06  1.11672132e-06   8.06915309e-06 -4.67900589e-05
0.06                           0               0                0               0      0.999999817 -0.000604779181   2.05922619e-07 -1.56213857e-06
                               0               0                0               0   4.20217464e-07  -1.2133477e-06      0.999999823 -0.000595662822
                               0               0                0               0   3.06527785e-06  -0.00309865254   2.71067485e-07 -1.15914728e-06
                               0               0                0               0   6.77340221e-07 -1.04816278e-06  -1.43699628e-07  -0.00310862234
0.1                            0               0                0               0      0.999986289 -0.000961107943  -1.48825376e-08 -2.48234922e-06
                               0               0                0               0   -1.4800968e-08 -2.47627882e-06      0.999986249 -0.000967475035
                               0               0                0               0   -8.9703572e-06  -0.00514402902  -1.75736497e-08 -2.48233566e-06
                               0               0                0               0  -1.75069661e-08 -2.47626491e-06  -9.01618505e-06  -0.00515037692
0.12                           0               0                0               0       0.99997385  -0.00113950969  -1.25937425e-07 -2.94124593e-06
                               0               0                0               0  -2.32390685e-07 -3.10490481e-06       0.99997442  -0.00115351307
                               0               0                0               0  -1.59828099e-05  -0.00616682332  -1.63277132e-07 -3.14102903e-06
                               0               0                0               0  -3.64110786e-07 -3.18576988e-06  -1.44732987e-05  -0.00617141231
0.18                           0               0                0               0      0.999930545  -0.00167567501  -4.61686854e-07 -4.31302156e-06
                               0               0                0               0  -8.85439996e-07 -4.97934779e-06      0.999932846   -0.0017121685
                               0               0                0               0  -4.10060307e-05   -0.0092356254  -6.05850381e-07 -5.10540423e-06
                               0               0                0               0    -1.400603e-06 -5.29609962e-06  -3.49350033e-05   -0.0092351437
0.24                           0               0                0               0      0.999878242  -0.00221328133   -8.0126941e-07 -5.67728381e-06
                               0               0                0               0  -1.53883507e-06 -6.83650293e-06      0.999882126  -0.00227164507
                               0               0                0               0   -7.2021032e-05   -0.0123050477   -1.0564955e-06 -7.05204335e-06
                               0               0                0               0  -2.43204455e-06 -7.37914827e-06  -6.15444638e-05   -0.0122998004
0.3                            0               0                0               0      0.999816916  -0.00275232997  -1.14462675e-06 -7.03384834e-06
                               0               0                0               0   -2.1924783e-06  -8.6761946e-06      0.999822239  -0.00283195464
                               0               0                0               0  -0.000109044763   -0.0153750791  -1.51505256e-06 -8.98071542e-06
                               0               0                0               0  -3.45834097e-06 -9.43490868e-06  -9.43176277e-05   -0.0153653663
0.36                           0               0                0               0      0.999746542  -0.00329282247   -1.4916984e-06 -8.38252807e-06
                               0               0                0               0  -2.84626986e-06 -1.04982452e-05      0.999753165  -0.00339310921
                               0               0                0               0   -0.00015209448   -0.0184457088  -1.98135843e-06  -1.0891188e-05
                               0               0                0               0  -4.47939509e-06 -1.14633704e-05  -0.000133270745   -0.0184318256
0.42                           0               0                0               0      0.999667096  -0.00383476051  -1.84242169e-06  -9.7231332e-06
                               0               0                0               0  -3.50010763e-06 -1.23024752e-05      0.999674882  -0.00395512088
                               0               0                0               0  -0.000201187751   -0.0215169258  -2.45524671e-06 -1.27832273e-05
                               0               0                0               0  -5.49510705e-06 -1.34645194e-05  -0.000178420375   -0.0214991627
0.48                           0               0                0               0      0.999578554  -0.00437814599  -2.19673174e-06 -1.10554711e-05
                               0               0                0               0  -4.15388715e-06 -1.40887031e-05      0.999587369  -0.00451800185
                               0               0                0               0  -0.000256342461   -0.0245887196  -2.93654767e-06 -1.46565978e-05
                               0               0                0               0  -6.50537421e-06 -1.54383387e-05   -0.00022978339   -0.0245673619
0.54                           0               0                0               0      0.999480891  -0.00492298098  -2.55456137e-06 -1.23793464e-05
                               0               0                0               0  -4.80750159e-06 -1.58567454e-05      0.999490604  -0.00508176444
                               0               0                0               0   -0.00031757682   -0.0276610794   -3.4250882e-06  -1.6511063e-05
                               0               0                0               0  -7.51009112e-06 -1.73848078e-05  -0.000287376982   -0.0276364079
0.6                            0               0                0               0      0.999374081  -0.00546926773  -2.91584104e-06 -1.36945607e-05
                               0               0                0               0  -5.46084168e-06 -1.76064164e-05      0.999384567  -0.00564642108
                               0               0                0               0  -0.000384909365   -0.0307339946  -3.92069177e-06 -1.83463844e-05
                               0               0                0               0  -8.50914949e-06 -1.93039027e-05  -0.000351218672   -0.0307062852
0.66                           0               0                0               0        0.9992581  -0.00601700871  -3.28049886e-06  -1.5000913e-05
                               0               0                0               0  -6.11379565e-06 -1.93375286e-05      0.999269235  -0.00621198431
                               0               0                0               0  -0.000458358966    -0.033807455  -4.42317834e-06 -2.01623224e-05
                               0               0                0               0  -9.50243808e-06 -2.11955964e-05  -0.000421326309   -0.0337769788
0.72                           0               0                0               0      0.999132922  -0.00656620655  -3.64846043e-06 -1.62981991e-05
                               0               0                0               0  -6.76624924e-06 -2.10498925e-05      0.999144586   -0.0067784668
                               0               0                0               0  -0.000537944837   -0.0368814501  -4.93236431e-06 -2.19586357e-05
                               0               0                0               0  -1.04898427e-05 -2.30598586e-05  -0.000497718083   -0.0368484736
0.78                           0               0                0               0      0.998998523  -0.00711686408  -4.01964888e-06 -1.75862119e-05
                               0               0                0               0  -7.41808555e-06 -2.27433162e-05      0.999010599  -0.00734588129
                               0               0                0               0  -0.000623686532   -0.0399559695  -5.44806247e-06 -2.37350816e-05
                               0               0                0               0  -1.14712462e-05 -2.48966555e-05  -0.000580412526   -0.0399207547
0.84                           0               0                0               0      0.998854877   -0.0076689843  -4.39398477e-06 -1.88647416e-05
                               0               0                0               0  -8.06918507e-06 -2.44176059e-05       0.99886725  -0.00791424066
                               0               0                0               0   -0.00071560396   -0.0430310033  -5.97008195e-06  -2.5491416e-05
                               0               0                0               0  -1.24465283e-05 -2.67059504e-05   -0.00066942852   -0.0429938074
0.9                            0               0                0               0      0.998701958  -0.00822257043  -4.77138602e-06 -2.01335749e-05
                               0               0                0               0  -8.71942559e-06 -2.60725658e-05      0.998714518  -0.00848355791
                               0               0                0               0  -0.000813717386   -0.0461065412   -6.4982281e-06 -2.72273931e-05
                               0               0                0               0  -1.34155655e-05  -2.8487703e-05  -0.000764785306    -0.046067617
0.96                           0               0                0               0      0.998539742  -0.00877762585  -5.15176785e-06  -2.1392496e-05
                               0               0                0               0  -9.36868213e-06 -2.77079979e-05      0.998552379  -0.00905384611
                               0               0                0               0  -0.000918047436   -0.0491825733   -7.0323025e-06 -2.89427657e-05
                               0               0                0               0  -1.43782314e-05 -3.02418702e-05  -0.000866502484   -0.0491421691
1.02                           0               0                0               0      0.998368201  -0.00933415415  -5.53504277e-06 -2.26412854e-05
                               0               0                0               0  -1.00168269e-05 -2.93237018e-05      0.998380811  -0.00962511848
                               0               0                0               0   -0.00102861511   -0.0522590897  -7.57210283e-06 -3.06372851e-05
                               0               0                0               0   -1.5334396e-05 -3.19684052e-05  -0.000974600024   -0.0522174492
1.08                           0               0                0               0       0.99818731  -0.00989215908  -5.92112043e-06 -2.38797211e-05
                               0               0                0               0  -1.06637293e-05 -3.09194753e-05      0.998199791   -0.0101973883
                               0               0                0               0   -0.00114544177   -0.0553360804  -8.11742284e-06 -3.23107011e-05
                               0               0                0               0  -1.62839264e-05 -3.36672584e-05   -0.00108909827   -0.0552934431
1.14                           0               0                0               0      0.997997044   -0.0104516446  -6.30990763e-06 -2.51075775e-05
                               0               0                0               0  -1.13092556e-05 -3.24951138e-05      0.998009294   -0.0107706691
                               0               0                0               0   -0.00126854917   -0.0584135358  -8.66805228e-06 -3.39627619e-05
                               0               0                0               0  -1.72266859e-05 -3.53383769e-05   -0.00121001796   -0.0583701366
1.2                            0               0                0               0      0.997797375   -0.0110126149  -6.70130819e-06  -2.6324626e-05
                               0               0                0               0  -1.19532694e-05 -3.40504106e-05      0.997809298   -0.0113449742
                               0               0                0               0   -0.00139795946   -0.0614914461   -9.2237768e-06 -3.55932143e-05
                               0               0                0               0  -1.81625347e-05 -3.69817045e-05   -0.00133738019   -0.0614475158
1.26                           0               0                0               0      0.997588278   -0.0115750742  -7.09522295e-06 -2.75306348e-05
                               0               0                0               0   -1.2595631e-05 -3.55851568e-05      0.997599779   -0.0119203175
                               0               0                0               0   -0.00153369516   -0.0645698018  -9.78437793e-06 -3.72018034e-05
                               0               0                0               0  -1.90913295e-05 -3.85971821e-05   -0.00147120648   -0.0645255668
1.32                           0               0                0               0      0.997369725   -0.0121390271  -7.49154965e-06 -2.87253687e-05
                               0               0                0               0  -1.32361977e-05  -3.7099141e-05      0.997380713   -0.0124967125
                               0               0                0               0    -0.0016757792   -0.0676485933  -1.03496329e-05  -3.8788273e-05
                               0               0                0               0  -2.00129232e-05 -4.01847472e-05   -0.00161151874   -0.0676042757
1.38                           0               0                0               0      0.997141691   -0.0127044784  -7.89018285e-06 -2.99085894e-05
                               0               0                0               0  -1.38748234e-05   -3.859215e-05      0.997152075   -0.0130741732
                               0               0                0               0   -0.00182423491   -0.0707278112  -1.09193148e-05 -4.03523652e-05
                               0               0                0               0  -2.09271654e-05 -4.17443342e-05   -0.00175833928   -0.0706836289
1.44                           0               0                0               0      0.996904147   -0.0132714327  -8.29101392e-06 -3.10800551e-05
                               0               0                0               0  -1.45113591e-05 -4.00639679e-05      0.996913841   -0.0136527135
                               0               0                0               0   -0.00197908605    -0.073807446  -1.14931922e-05 -4.18938206e-05
                               0               0                0               0  -2.18339019e-05 -4.32758746e-05   -0.00191169084   -0.0737636128
1.5                            0               0                0               0      0.996657067   -0.0138398954  -8.69393089e-06 -3.22395209e-05
                               0               0                0               0  -1.51456523e-05 -4.15143768e-05      0.996665986   -0.0142323475
                               0               0                0               0   -0.00214035677   -0.0768874884  -1.20710293e-05 -4.34123783e-05
                               0               0                0               0  -2.27329746e-05 -4.47792966e-05   -0.00207159657    -0.076844214
1.56                           0               0                0               0      0.996400424   -0.0144098716  -9.09881842e-06 -3.33867381e-05
                               0               0                0               0   -1.5777547e-05 -4.29431564e-05      0.996408485   -0.0148130893
                               0               0                0               0   -0.00230807168   -0.0799679292  -1.26525856e-05 -4.49077758e-05
                               0               0                0               0  -2.36242219e-05 -4.62545253e-05   -0.00223808005   -0.0799254192
1.62                           0               0                0               0      0.996134189   -0.0149813667  -9.50555772e-06  -3.4521455e-05
                               0               0                0               0  -1.64068838e-05 -4.43500839e-05      0.996141313   -0.0153949532
                               0               0                0               0   -0.00248225578   -0.0830487592  -1.32376163e-05 -4.63797492e-05
                               0               0                0               0  -2.45074779e-05 -4.77014828e-05    -0.0024111653   -0.0830072151
1.68                           0               0                0               0      0.995858335   -0.0155543865  -9.91402645e-06 -3.56434163e-05
                               0               0                0               0  -1.70335001e-05 -4.57349345e-05      0.995864444   -0.0159779535
                               0               0                0               0   -0.00266293453   -0.0861299691  -1.38258717e-05 -4.78280329e-05
                               0               0                0               0  -2.53825732e-05  -4.9120088e-05   -0.00259087677   -0.0860895886
1.74                           0               0                0               0      0.995572834   -0.0161289366  -1.03240987e-05  -3.6752363e-05
                               0               0                0               0  -1.76572292e-05 -4.70974807e-05      0.995577852   -0.0165621048
                               0               0                0               0   -0.00285013384     -0.08921155  -1.44170973e-05 -4.92523599e-05
                               0               0                0               0  -2.62493339e-05 -5.05102569e-05   -0.00277723937   -0.0891725267
1.8                            0               0                0               0      0.995277658   -0.0167050232  -1.07356447e-05 -3.78480329e-05
                               0               0                0               0   -1.8277901e-05 -4.84374929e-05      0.995281512   -0.0171474217
                               0               0                0               0   -0.00304388006   -0.0922934928  -1.50110339e-05 -5.06524616e-05
                               0               0                0               0  -2.71075823e-05 -5.18719022e-05   -0.00297027845   -0.0922560163
1.86                           0               0                0               0      0.994972779   -0.0172826523  -1.11485311e-05 -3.89301601e-05
                               0               0                0               0  -1.88953416e-05 -4.97547389e-05      0.994975396   -0.0177339186
                               0               0                0               0       -0.0032442   -0.0953757885  -1.56074172e-05  -5.2028068e-05
                               0               0                0               0  -2.79571365e-05 -5.32049339e-05   -0.00317001985   -0.0953400447
1.92                           0               0                0               0      0.994658166   -0.0178618304  -1.15626206e-05  -3.9998475e-05
                               0               0                0               0  -1.95093732e-05 -5.10489843e-05      0.994659477   -0.0183216106
                               0               0                0               0   -0.00345112094   -0.0984584282   -1.6205978e-05 -5.33789072e-05
                               0               0                0               0  -2.87978102e-05 -5.45092587e-05   -0.00337648985   -0.0984245991
1.98                           0               0                0               0      0.994333793   -0.0184425639  -1.19777718e-05 -4.10527046e-05
                               0               0                0               0  -2.01198142e-05 -5.23199921e-05       0.99433373   -0.0189105123
                               0               0                0               0   -0.00366467061    -0.101541403  -1.68064418e-05 -5.47047063e-05
                               0               0                0               0  -2.96294128e-05 -5.57847804e-05   -0.00358971523    -0.101509667
2.04                           0               0                0               0      0.993999628   -0.0190248597  -1.23938394e-05  -4.2092572e-05
                               0               0                0               0   -2.0726479e-05 -5.35675229e-05      0.993998127   -0.0195006388
                               0               0                0               0   -0.00388487725    -0.104624704   -1.7408529e-05 -5.60051904e-05
                               0               0                0               0  -3.04517492e-05 -5.70313997e-05   -0.00380972324    -0.104595235
2.1                            0               0                0               0      0.993655644   -0.0196087245  -1.28106739e-05 -4.31177969e-05
                               0               0                0               0  -2.13291778e-05 -5.47913349e-05      0.993652639   -0.0200920052
                               0               0                0               0   -0.00411176957    -0.107708322  -1.80119548e-05 -5.72800835e-05
                               0               0                0               0  -3.12646199e-05 -5.82490144e-05   -0.00403654163    -0.107681292
2.16                           0               0                0               0      0.993301809   -0.0201941655  -1.32281216e-05  -4.4128095e-05
                               0               0                0               0  -2.19277167e-05 -5.59911837e-05      0.993297239   -0.0206846265
                               0               0                0               0   -0.00434537676    -0.110792249  -1.86164287e-05 -5.85291077e-05
                               0               0                0               0  -3.20678208e-05 -5.94375193e-05   -0.00427019865    -0.110767824
2.22                           0               0                0               0      0.992938095   -0.0207811899  -1.36460244e-05 -4.51231784e-05
                               0               0                0               0  -2.25218975e-05 -5.71668227e-05      0.992931899    -0.021278518
                               0               0                0               0   -0.00458572854    -0.113876476   -1.9221655e-05 -5.97519839e-05
                               0               0                0               0   -3.2861143e-05 -6.05968062e-05   -0.00451072304     -0.11385482
2.28                           0               0                0               0       0.99256447   -0.0213698051  -1.40642197e-05 -4.61027555e-05
                               0               0                0               0  -2.31115179e-05 -5.83180024e-05      0.992556589    -0.021873695
                               0               0                0               0    -0.0048328551    -0.116960995  -1.98273323e-05 -6.09484314e-05
                               0               0                0               0  -3.36443728e-05  -6.1726764e-05   -0.00475814408    -0.116942267
2.34                           0               0                0               0      0.992180904   -0.0219600187  -1.44825406e-05 -4.70665305e-05
                               0               0                0               0  -2.36963708e-05 -5.94444712e-05      0.992171282   -0.0224701731
                               0               0                0               0   -0.00508678718    -0.120045795  -2.04331534e-05 -6.21181679e-05
                               0               0                0               0  -3.44172918e-05 -6.28272786e-05   -0.00501249156    -0.120030153
2.4                            0               0                0               0      0.991787366   -0.0225518384  -1.49008153e-05 -4.80142042e-05
                               0               0                0               0  -2.42762448e-05 -6.05459746e-05      0.991775947   -0.0230679675
                               0               0                0               0   -0.00534755602     -0.12313087  -2.10388054e-05 -6.32609098e-05
                               0               0                0               0  -3.51796765e-05  -6.3898233e-05    -0.0052737958    -0.123118466
2.46                           0               0                0               0      0.991383826   -0.0231452723  -1.53188674e-05 -4.89454734e-05
                               0               0                0               0  -2.48509239e-05 -6.16222558e-05      0.991370554   -0.0236670941
                               0               0                0               0   -0.00561519339     -0.12621621  -2.16439694e-05 -6.43763719e-05
                               0               0                0               0  -3.59312984e-05 -6.49395072e-05   -0.00554208764    -0.126207193
2.52                           0               0                0               0       0.99097025   -0.0237403283  -1.57365155e-05 -4.98600308e-05
                               0               0                0               0  -2.54201873e-05 -6.26730554e-05      0.990955075   -0.0242675683
                               0               0                0               0   -0.00588973161    -0.129301806  -2.22483206e-05 -6.54642677e-05
                               0               0                0               0  -3.66719237e-05 -6.59509786e-05   -0.00581739851    -0.129296324
2.58                           0               0                0               0      0.990546609   -0.0243370147  -1.61535733e-05 -5.07575652e-05
                               0               0                0               0  -2.59838094e-05 -6.36981113e-05      0.990529478   -0.0248694061
                               0               0                0               0   -0.00617120353    -0.132387651  -2.28515281e-05  -6.6524309e-05
                               0               0                0               0  -3.74013136e-05 -6.69325212e-05   -0.00609976034    -0.132385844
2.64                           0               0                0               0      0.990112868   -0.0249353399  -1.65698495e-05 -5.16377618e-05
                               0               0                0               0  -2.65415598e-05 -6.46971591e-05      0.990093732   -0.0254726231
                               0               0                0               0   -0.00645964256    -0.135473735  -2.34532545e-05 -6.75562065e-05
                               0               0                0               0  -3.81192236e-05 -6.78840067e-05   -0.00638920567    -0.135475744
2.7                            0               0                0               0      0.989668996   -0.0255353126  -1.69851475e-05 -5.25003013e-05
                               0               0                0               0   -2.7093203e-05 -6.56699316e-05      0.989647806   -0.0260772354
                               0               0                0               0   -0.00675508267    -0.138560049  -2.40531564e-05 -6.85596691e-05
                               0               0                0               0   -3.8825404e-05 -6.88053036e-05   -0.00668576758     -0.13856601
2.76                           0               0                0               0       0.98921496   -0.0261369415  -1.73992655e-05 -5.33448607e-05
                               0               0                0               0  -2.76384983e-05 -6.66161589e-05      0.989191669   -0.0266832588
                               0               0                0               0    -0.0070575584    -0.141646586  -2.46508836e-05 -6.95344046e-05
                               0               0                0               0  -3.95195994e-05 -6.96962776e-05   -0.00698947973    -0.141656631
2.82                           0               0                0               0      0.988750727   -0.0267402354  -1.78119961e-05 -5.41711128e-05
                               0               0                0               0  -2.81771998e-05 -6.75355688e-05      0.988725288   -0.0272907096
                               0               0                0               0   -0.00736710485    -0.144733337  -2.52460797e-05 -7.04801193e-05
                               0               0                0               0  -4.02015489e-05 -7.05567916e-05   -0.00730037638    -0.144747595
2.88                           0               0                0               0      0.988276263   -0.0273452034  -1.82231264e-05 -5.49787264e-05