! TOUCHSTONE file generated by CST MICROWAVE STUDIO
! Date and time: Wed Apr 16 11:32:49 2025
! Project name: LOSSLESS_rogers4003c_air_gapped_wideband_balanced.cst
! Parameters = {h=2; lambda=10; period=5; phi=0; theta=0; thickness=0.508; w_mesh_1=2; w_mesh_2=2; w_patch_1=1.6; w_patch_2=1.6}
! Header version: 2018
! Port assignment regex: !\s*Touchstone port\s*([0-9]+)\s*=\s*(CST MWS port|CST DS port)\s*([0-9]+|Zmin|Zmax)\s*\(\"(.*)\"\)(\s*mode\s*([0-9]+))?.*
! Touchstone port assignment:
! Touchstone port 1 = CST MWS port Zmin ("") mode 1
! Touchstone port 2 = CST MWS port Zmin ("") mode 2
! Touchstone port 3 = CST MWS port Zmax ("") mode 1
! Touchstone port 4 = CST MWS port Zmax ("") mode 2
! S-Parameters are not renormalized. Unphysical impedance of 50 will be written to the file.
# GHz S RI R 50
0                              0               0                0               0       0.99990765  5.66790248e-05   2.83897668e-07 -5.53643152e-07
                               0               0                0               0   3.10857676e-07 -5.58570106e-07      0.999904444   6.9248479e-05
                               0               0                0               0   0.000103166044 -5.06986211e-05    9.2096216e-07 -1.01705839e-06
                               0               0                0               0   9.15140457e-07 -1.00729036e-06   0.000100410795 -6.34151868e-05
0.06                           0               0                0               0      0.999931595  -0.00567285501   1.05465281e-07 -6.87270665e-07
                               0               0                0               0   1.16030617e-07 -6.89528052e-07      0.999930394   -0.0056692328
                               0               0                0               0   7.76811811e-06  -0.00572056308   3.51649809e-07 -8.73200776e-07
                               0               0                0               0   3.49326015e-07 -8.69541962e-07   6.60484205e-06  -0.00572690306
0.1                            0               0                0               0      0.999909811   -0.0094920926  -1.44827513e-08 -7.76390017e-07
                               0               0                0               0  -1.48385008e-08 -7.76799988e-07      0.999909769  -0.00949434802
                               0               0                0               0  -9.02157146e-05  -0.00949980681  -2.97277554e-08 -7.76234772e-07
                               0               0                0               0  -2.97475995e-08 -7.76648841e-07  -9.02619598e-05  -0.00950203896
0.12                           0               0                0               0      0.999887604   -0.0114014385  -7.47563338e-08 -8.20959701e-07
                               0               0                0               0  -8.05699991e-08 -8.20425602e-07       0.99988809   -0.0114066058
                               0               0                0               0  -0.000149526672    -0.011389096    -2.209708e-07 -7.27430227e-07
                               0               0                0               0  -2.19847114e-07 -7.29880706e-07  -0.000148998574   -0.0113893172
0.18                           0               0                0               0      0.999775783   -0.0171278371  -2.56781924e-07 -9.54707598e-07
                               0               0                0               0  -2.78958759e-07 -9.51259641e-07      0.999777648   -0.0171416289
                               0               0                0               0  -0.000368739941   -0.0170551015  -7.96930967e-07 -5.79717168e-07
                               0               0                0               0  -7.92410666e-07 -5.88276535e-07  -0.000366429022   -0.0170494606
0.24                           0               0                0               0      0.999596268    -0.022850821  -4.40626372e-07 -1.08851169e-06
                               0               0                0               0  -4.79150392e-07 -1.08202704e-06      0.999599213   -0.0228730656
                               0               0                0               0  -0.000649864264   -0.0227173829   -1.3762624e-06 -4.30031457e-07
                               0               0                0               0  -1.36839679e-06 -4.44698816e-07   -0.00064568696   -0.0227061356
0.3                            0               0                0               0      0.999349229   -0.0285691659  -6.26304695e-07 -1.22236931e-06
                               0               0                0               0  -6.81159768e-07 -1.21272468e-06      0.999352963   -0.0285996853
                               0               0                0               0  -0.000992863187   -0.0283747441  -1.95899723e-06 -2.78342369e-07
                               0               0                0               0  -1.94783803e-06 -2.99116329e-07  -0.000986743733   -0.0283581446
0.36                           0               0                0               0      0.999034863   -0.0342816543  -8.13832053e-07 -1.35627778e-06
                               0               0                0               0  -8.85001908e-07  -1.3433494e-06      0.999039106   -0.0343202643
                               0               0                0               0   -0.00139767127   -0.0340259902  -2.54516798e-06 -1.24618588e-07
                               0               0                0               0  -2.53076738e-06 -1.51497248e-07   -0.00138954161   -0.0340042911
0.42                           0               0                0               0        0.9986534    -0.039987076  -1.00322374e-06 -1.49023444e-06
                               0               0                0               0  -1.09069198e-06 -1.47389808e-06      0.998657881   -0.0400335869
                               0               0                0               0   -0.00186419416   -0.0396699285  -3.13480763e-06  3.11718095e-08
                               0               0                0               0  -3.11721823e-06 -1.80913369e-09   -0.00185399384   -0.0396433803
0.48                           0               0                0               0        0.9982051   -0.0456842295  -1.19449521e-06 -1.62423661e-06
                               0               0                0               0  -1.29824529e-06 -1.60436757e-06      0.998209557   -0.0457384462
                               0               0                0               0   -0.00239230871   -0.0453053691  -3.72794957e-06  1.89061366e-07
                               0               0                0               0  -3.70722444e-06  1.49981086e-07   -0.00237998478   -0.0452742203
0.54                           0               0                0               0      0.997690251   -0.0513719224  -1.38766203e-06 -1.75828162e-06
                               0               0                0               0  -1.50767732e-06 -1.73475472e-06      0.997694432    -0.051433645
                               0               0                0               0   -0.00298186313   -0.0509311264  -4.32462766e-06  3.49083262e-07
                               0               0                0               0  -4.30082026e-06  3.03907128e-07   -0.00296737001   -0.0508956231
0.6                            0               0                0               0      0.997109171   -0.0570489727  -1.58273994e-06 -1.89236681e-06
                               0               0                0               0  -1.71900368e-06 -1.86505638e-06      0.997112834   -0.0571179969
                               0               0                0               0   -0.00363267712   -0.0565460193  -4.92487616e-06  5.11271326e-07
                               0               0                0               0  -4.89804044e-06  4.60003371e-07   -0.00361597649   -0.0565064051
0.66                           0               0                0               0      0.996462208   -0.0627142095  -1.77974481e-06 -2.02648953e-06
                               0               0                0               0  -1.93224015e-06 -1.99526941e-06      0.996465121    -0.062790327
                               0               0                0               0   -0.00434454215   -0.0621488727  -5.52872984e-06  6.75660052e-07
                               0               0                0               0  -5.49892015e-06   6.1830487e-07   -0.00432560278   -0.0621053881
0.72                           0               0                0               0      0.995749738   -0.0683664741  -1.97869267e-06 -2.16064711e-06
                               0               0                0               0  -2.14740267e-06 -2.12539067e-06      0.995751679   -0.0684494725
                               0               0                0               0   -0.00511722166   -0.0677385177  -6.13622388e-06  8.42284617e-07
                               0               0                0               0  -6.10349503e-06  7.78847371e-07   -0.00509601931   -0.0676914004
0.78                           0               0                0               0      0.994972164   -0.0740046204   -2.1795997e-06 -2.29483693e-06
                               0               0                0               0  -2.36450732e-06 -2.25541702e-06       0.99497292   -0.0740942844
                               0               0                0               0   -0.00595045132   -0.0733137931  -6.74739397e-06   1.0111809e-06
                               0               0                0               0   -6.7118012e-06  9.41667331e-07   -0.00592696856   -0.0732632775
0.84                           0               0                0               0      0.994129919   -0.0796275161  -2.38248222e-06 -2.42905634e-06
                               0               0                0               0  -2.58357037e-06 -2.38534534e-06      0.994129288   -0.0797236274
                               0               0                0               0   -0.00684393938   -0.0788735457  -7.36227626e-06  1.18238548e-06
                               0               0                0               0  -7.32387525e-06  1.10680193e-06   -0.00681816545   -0.0788198628
0.9                            0               0                0               0       0.99322346   -0.0852340437  -2.58735671e-06 -2.56330275e-06
                               0               0                0               0  -2.80460824e-06  -2.5151725e-06      0.993221249   -0.0853363812
                               0               0                0               0   -0.00779736698   -0.0844166316  -7.98090737e-06  1.35593568e-06
                               0               0                0               0  -7.93975424e-06  1.27428909e-06    -0.0077692976   -0.0843600087
0.96                           0               0                0               0      0.992253273   -0.0908231005  -2.79423982e-06 -2.69757354e-06
                               0               0                0               0   -3.0276375e-06 -2.64489539e-06        0.9922493   -0.0909314411
                               0               0                0               0   -0.00881038852   -0.0899419165  -8.60332445e-06  1.53186957e-06
                               0               0                0               0  -8.55947576e-06  1.44416751e-06   -0.00878002574   -0.0898825772
1.02                           0               0                0               0      0.991219869   -0.0963936003  -3.00314834e-06 -2.83186614e-06
                               0               0                0               0  -3.25267491e-06 -2.77451092e-06      0.991213961   -0.0965077191
                               0               0                0               0   -0.00988263205   -0.0954482769  -9.22956513e-06  1.71022598e-06
                               0               0                0               0  -9.18307787e-06  1.61647664e-06   -0.00984998408   -0.0953864407
1.08                           0               0                0               0      0.990123786    -0.101944474  -3.21409923e-06 -2.96617798e-06
                               0               0                0               0   -3.4797374e-06 -2.90401601e-06       0.99011578    -0.102064144
                               0               0                0               0    -0.0110136997    -0.100934601  -9.85966754e-06  1.89104455e-06
                               0               0                0               0  -9.81059913e-06  1.79125674e-06    -0.0109787807    -0.100870483
1.14                           0               0                0               0      0.988965584    -0.107474668  -3.42710961e-06 -3.10050654e-06
                               0               0                0               0  -3.70884207e-06 -3.03340758e-06      0.988955326    -0.107599663
                               0               0                0               0    -0.0122031682    -0.106399788  -1.04936703e-05  2.07436569e-06
                               0               0                0               0  -1.04420787e-05   1.9685489e-06    -0.0121659981      -0.1063336
1.2                            0               0                0               0      0.987745849    -0.112983151  -3.64219676e-06  -3.2348493e-06
                               0               0                0               0  -3.94000618e-06  -3.1626826e-06      0.987733197    -0.113113242
                               0               0                0               0    -0.0134505891    -0.111842752  -1.11316127e-05  2.26023066e-06
                               0               0                0               0  -1.10775561e-05  2.14839504e-06    -0.0134111934    -0.111774701
1.26                           0               0                0               0      0.986465191    -0.118468906  -3.85937812e-06 -3.36920378e-06
                               0               0                0               0  -4.17324719e-06 -3.29183805e-06      0.986450009    -0.118603864
                               0               0                0               0    -0.0147554897     -0.11726242  -1.17735344e-05  2.44868155e-06
                               0               0                0               0  -1.17170715e-05  2.33083792e-06    -0.0147138993    -0.117192707
1.32                           0               0                0               0      0.985124241    -0.123930938  -4.07867132e-06 -3.50356754e-06
                               0               0                0               0  -4.40858272e-06 -3.42087092e-06      0.985106406    -0.124070535
                               0               0                0               0    -0.0161173732    -0.122657731  -1.24194757e-05  2.63976134e-06
                               0               0                0               0  -1.23606657e-05  2.51592122e-06    -0.0160736243    -0.122586554
1.38                           0               0                0               0      0.983723654    -0.129368273  -4.30009413e-06 -3.63793815e-06
                               0               0                0               0  -4.64603059e-06 -3.54977825e-06       0.98370305     -0.12951228
                               0               0                0               0    -0.0175357194    -0.128027643  -1.30694773e-05  2.83351386e-06
                               0               0                0               0  -1.30083798e-05  2.70368947e-06     -0.017489853    -0.127955194
1.44                           0               0                0               0      0.982264106    -0.134779955  -4.52366453e-06 -3.77231324e-06
                               0               0                0               0  -4.88560879e-06  -3.6785571e-06      0.982240626    -0.134928145
                               0               0                0               0    -0.0190099854    -0.133371127  -1.37235807e-05  3.02998388e-06
                               0               0                0               0  -1.36602557e-05  2.89418815e-06    -0.0189620473    -0.133297594
1.5                            0               0                0               0      0.980746292    -0.140165051  -4.74940063e-06 -3.90669048e-06
                               0               0                0               0  -5.12733552e-06 -3.80720457e-06       0.98071984    -0.140317197
                               0               0                0               0    -0.0205396058     -0.13868717  -1.43818278e-05   3.2292171e-06
                               0               0                0               0  -1.43163358e-05   3.0874637e-06    -0.0204896464    -0.138612736
1.56                           0               0                0               0       0.97917093     -0.14552265  -4.97732076e-06 -4.04106757e-06
                               0               0                0               0  -5.37122913e-06  -3.9357178e-06      0.979141418    -0.145678526
                               0               0                0               0    -0.0221239938    -0.143974778  -1.50442612e-05  3.43126017e-06
                               0               0                0               0   -1.4976663e-05  3.28356351e-06     -0.022072068    -0.143899619
1.62                           0               0                0               0      0.977538755    -0.150851862  -5.20744339e-06 -4.17544228e-06
                               0               0                0               0  -5.61730821e-06 -4.06409394e-06      0.977506103    -0.151011244
                               0               0                0               0    -0.0237625416    -0.149232972  -1.57109239e-05   3.6361607e-06
                               0               0                0               0  -1.56412809e-05  3.48253596e-06    -0.0237087081    -0.149157262
1.68                           0               0                0               0       0.97585052    -0.156151822  -5.43978721e-06 -4.30981242e-06
                               0               0                0               0  -5.86559152e-06 -4.19233023e-06      0.975814657    -0.156314487
                               0               0                0               0    -0.0254546208    -0.154460793  -1.63818598e-05  3.84396734e-06
                               0               0                0               0  -1.63102336e-05  3.68443046e-06    -0.0253989427    -0.154384698
1.74                           0               0                0               0      0.974106998    -0.161421685  -5.67437106e-06 -4.44417585e-06
                               0               0                0               0  -6.11609802e-06 -4.32042393e-06      0.974067863    -0.161587414
                               0               0                0               0    -0.0271995838    -0.159657299  -1.70571131e-05  4.05472976e-06
                               0               0                0               0  -1.69835659e-05  3.88929746e-06    -0.0271421274     -0.15958098
1.8                            0               0                0               0      0.972308978    -0.166660632  -5.91121398e-06  -4.5785305e-06
                               0               0                0               0  -6.36884687e-06 -4.44837235e-06      0.972266515    -0.166829206
                               0               0                0               0    -0.0289967635    -0.164821567  -1.77367288e-05  4.26849866e-06
                               0               0                0               0  -1.76613231e-05  4.09718849e-06    -0.0289375989    -0.164745181
1.86                           0               0                0               0      0.970457263    -0.171867867   -6.1503352e-06 -4.71287437e-06
                               0               0                0               0  -6.62385745e-06 -4.57617288e-06      0.970411426     -0.17203907
                               0               0                0               0    -0.0308454748    -0.169952696  -1.84207525e-05  4.48532587e-06
                               0               0                0               0  -1.83435513e-05  4.30815617e-06    -0.0307846753    -0.169876393
1.92                           0               0                0               0      0.968552674    -0.177042618  -6.39175415e-06 -4.84720552e-06
                               0               0                0               0  -6.88114932e-06 -4.70382293e-06      0.968503425    -0.177216239
                               0               0                0               0    -0.0327450149      -0.1750498  -1.91092304e-05   4.7052643e-06
                               0               0                0               0  -1.90302971e-05  4.52225425e-06     -0.032682657    -0.174973726
1.98                           0               0                0               0      0.966596046    -0.182184139  -6.63549044e-06 -4.98152208e-06
                               0               0                0               0  -7.14074228e-06 -4.83132001e-06      0.966543354    -0.182359967
                               0               0                0               0    -0.0346946643    -0.180112019  -1.98022095e-05  4.92836799e-06
                               0               0                0               0  -1.97216078e-05  4.73953764e-06    -0.0346308271    -0.180036312
2.04                           0               0                0               0      0.964588226    -0.187291706  -6.88156387e-06 -5.11582227e-06
                               0               0                0               0  -7.40265633e-06 -4.95866168e-06      0.964532068    -0.187469537
                               0               0                0               0    -0.0366936871    -0.185138508  -2.04997373e-05   5.1546922e-06
                               0               0                0               0  -2.04175314e-05  4.96006242e-06    -0.0366284524    -0.185063303
2.1                            0               0                0               0      0.962530076    -0.192364624  -7.12999446e-06 -5.25010439e-06
                               0               0                0               0  -7.66691169e-06 -5.08584559e-06      0.962470435    -0.192544253
                               0               0                0               0    -0.0387413322    -0.190128446   -2.1201862e-05  5.38429334e-06
                               0               0                0               0  -2.11181164e-05  5.18388591e-06    -0.0386747844    -0.190053872
2.16                           0               0                0               0      0.960422468    -0.197402221  -7.38080242e-06 -5.38436684e-06
                               0               0                0               0  -7.93352879e-06 -5.21286945e-06      0.960359335    -0.197583449
                               0               0                0               0    -0.0408368337    -0.195081034  -2.19086325e-05  5.61722907e-06
                               0               0                0               0  -2.18234122e-05  5.41106666e-06    -0.0407690593    -0.195007213
2.22                           0               0                0               0      0.958266288    -0.202403849  -7.63400817e-06  -5.5186081e-06
                               0               0                0               0   -8.2025283e-06 -5.33973106e-06      0.958199659    -0.202586482
                               0               0                0               0     -0.042979412    -0.199995493  -2.26200985e-05  5.85355833e-06
                               0               0                0               0  -2.25334688e-05  5.64166452e-06    -0.0429104994    -0.199922543
2.28                           0               0                0               0      0.956062429    -0.207368889  -7.88963233e-06 -5.65282675e-06
                               0               0                0               0  -8.47393111e-06 -5.46642831e-06      0.955992309    -0.207552735
                               0               0                0               0    -0.0451682741    -0.204871066  -2.33363103e-05  6.09334135e-06
                               0               0                0               0  -2.32483369e-05  5.87574064e-06    -0.0450983136    -0.204799098
2.34                           0               0                0               0      0.953811797    -0.212296746  -8.14769574e-06  -5.7870215e-06
                               0               0                0               0  -8.74775833e-06 -5.59295919e-06      0.953738194    -0.212481617
                               0               0                0               0    -0.0474026147    -0.209707018  -2.40573189e-05  6.33663967e-06
                               0               0                0               0   -2.3968068e-05  6.11335752e-06    -0.0473316982    -0.209636138
2.4                            0               0                0               0      0.951515303     -0.21718685  -8.40821944e-06 -5.92119115e-06
                               0               0                0               0  -9.02403133e-06 -5.71932179e-06      0.951438234    -0.217372565
                               0               0                0               0    -0.0496816169    -0.214502636  -2.47831761e-05  6.58351623e-06
                               0               0                0               0  -2.46927141e-05  6.35457905e-06    -0.0496098377    -0.214432945
2.46                           0               0                0               0       0.94917387     -0.22203866  -8.67122472e-06 -6.05533463e-06
                               0               0                0               0  -9.30277171e-06 -5.84551429e-06      0.949093356     -0.22222504
                               0               0                0               0    -0.0520044529     -0.21925723  -2.55139346e-05  6.83403536e-06
                               0               0                0               0  -2.54223283e-05  6.59947054e-06    -0.0519319055    -0.219188824
2.52                           0               0                0               0      0.946788426    -0.226851658  -8.93673305e-06   -6.189451e-06
                               0               0                0               0  -9.58400128e-06 -5.97153501e-06      0.946704494    -0.227038529
                               0               0                0               0    -0.0543702848    -0.223970133  -2.62496475e-05  7.08826285e-06
                               0               0                0               0  -2.61569641e-05  6.84809878e-06    -0.0542970647    -0.223903101
2.58                           0               0                0               0      0.944359905    -0.231625353  -9.20476615e-06 -6.32353946e-06
                               0               0                0               0  -9.86774215e-06 -6.09738239e-06      0.944272587    -0.231812546
                               0               0                0               0    -0.0567782653      -0.2286407  -2.69903689e-05  7.34626594e-06
                               0               0                0               0   -2.6896676e-05  7.10053204e-06    -0.0567044689    -0.228575125
2.64                           0               0                0               0      0.941889248     -0.23635928  -9.47534595e-06 -6.45759935e-06
                               0               0                0               0  -1.01540166e-05 -6.22305496e-06      0.941798582    -0.236546631
                               0               0                0               0    -0.0592275386    -0.233268307  -2.77361537e-05  7.60811342e-06
                               0               0                0               0  -2.76415192e-05  7.35684012e-06    -0.0591532627    -0.233204269
2.7                            0               0                0               0        0.9393774       -0.241053  -9.74849463e-06 -6.59163015e-06
                               0               0                0               0  -1.04428473e-05 -6.34855143e-06      0.939283427     -0.24124035
                               0               0                0               0    -0.0617172409    -0.237852356  -2.84870577e-05  7.87387564e-06
                               0               0                0               0  -2.83915497e-05  7.61709444e-06    -0.0616425831    -0.237789928
2.76                           0               0                0               0      0.936825312    -0.245706101  -1.00242346e-05 -6.72563151e-06
                               0               0                0               0  -1.07342571e-05 -6.47387063e-06      0.936728078    -0.245893296
                               0               0                0               0    -0.0642465015    -0.242392268  -2.92431371e-05  8.14362456e-06
                               0               0                0               0  -2.91468244e-05  7.88136801e-06    -0.0641715594     -0.24233152
2.82                           0               0                0               0      0.934233934    -0.250318196  -1.03025885e-05 -6.85960325e-06
                               0               0                0               0   -1.1028269e-05 -6.59901155e-06       0.93413349    -0.250505085
                               0               0                0               0    -0.0668144432    -0.246887491  -3.00044494e-05  8.41743377e-06
                               0               0                0               0  -2.99074007e-05  8.14973553e-06    -0.0667393146    -0.246828485
2.88                           0               0                0               0      0.931604224    -0.254888922  -1.05835792e-05 -6.99354537e-06