! TOUCHSTONE file generated by CST MICROWAVE STUDIO
! Date and time: Wed Apr 16 11:32:47 2025
! Project name: LOSSLESS_rogers4003c_air_gapped_wideband_balanced.cst
! Parameters = {h=1; lambda=10; period=5; phi=0; theta=0; thickness=0.508; w_mesh_1=2; w_mesh_2=2; w_patch_1=1.6; w_patch_2=1.6}
! Header version: 2018
! Port assignment regex: !\s*Touchstone port\s*([0-9]+)\s*=\s*(CST MWS port|CST DS port)\s*([0-9]+|Zmin|Zmax)\s*\(\"(.*)\"\)(\s*mode\s*([0-9]+))?.*
! Touchstone port assignment:
! Touchstone port 1 = CST MWS port Zmin ("") mode 1
! Touchstone port 2 = CST MWS port Zmin ("") mode 2
! Touchstone port 3 = CST MWS port Zmax ("") mode 1
! Touchstone port 4 = CST MWS port Zmax ("") mode 2
! S-Parameters are not renormalized. Unphysical impedance of 50 will be written to the file.
# GHz S RI R 50
0                              0               0                0               0      0.999949096 -6.02535282e-05   3.71013309e-06 -2.47786913e-06
                               0               0                0               0  -7.94698141e-07 -1.02458692e-06      0.999948988 -5.72910631e-05
                               0               0                0               0   1.92628329e-05 -3.47755824e-05   4.60413946e-06  2.39133914e-06
                               0               0                0               0  -7.53964453e-07  1.29457137e-07  -1.81325446e-05 -7.42615686e-05
0.06                           0               0                0               0      0.999947081   -0.0057335346   1.42610563e-06 -4.10744637e-06
                               0               0                0               0  -3.55489385e-07 -3.50355914e-06      0.999946999  -0.00573888629
                               0               0                0               0  -2.51439779e-05   -0.0057291827   1.75760644e-06 -2.21212295e-06
                               0               0                0               0  -3.20565167e-07 -3.05077551e-06  -4.00868347e-05   -0.0057509345
0.1                            0               0                0               0      0.999909199  -0.00951644524  -9.45826811e-08 -5.20315426e-06
                               0               0                0               0  -9.82173342e-08 -5.17598681e-06      0.999909023  -0.00952730939
                               0               0                0               0   -9.0321453e-05  -0.00952537118  -7.76499703e-08 -5.20328162e-06
                               0               0                0               0  -7.71100865e-08 -5.17615462e-06  -9.05338416e-05  -0.00953610352
0.12                           0               0                0               0      0.999879295   -0.0114079946  -8.54282121e-07 -5.75378414e-06
                               0               0                0               0     1.956017e-08 -6.01794158e-06      0.999879038   -0.0114216055
                               0               0                0               0  -0.000133583913   -0.0114233199  -9.77466087e-07 -6.67612346e-06
                               0               0                0               0   3.09734225e-08 -6.24009369e-06  -0.000126506437   -0.0114287803
0.18                           0               0                0               0       0.99974573   -0.0170825274  -3.13061883e-06  -7.4166886e-06
                               0               0                0               0   3.28684168e-07 -8.56596602e-06      0.999745102   -0.0171043392
                               0               0                0               0  -0.000306065534   -0.0171161018  -3.60910696e-06 -1.10060581e-05
                               0               0                0               0   3.00688693e-07 -9.43564263e-06  -0.000277435578   -0.0171066835
0.24                           0               0                0               0      0.999546403   -0.0227560272   -5.4024938e-06 -9.09595083e-06
                               0               0                0               0   5.70176388e-07 -1.11457694e-05      0.999545208   -0.0227859784
                               0               0                0               0  -0.000542573357   -0.0228064431   -6.1446863e-06 -1.52071125e-05
                               0               0                0               0   4.88748249e-07 -1.26345841e-05  -0.000492893263   -0.0227835279
0.3                            0               0                0               0      0.999281357   -0.0284273896  -7.66949749e-06 -1.07913468e-05
                               0               0                0               0   7.42396714e-07 -1.37553962e-05      0.999279403   -0.0284654155
                               0               0                0               0  -0.000843067883   -0.0284932595  -8.59097592e-06 -1.92842638e-05
                               0               0                0               0   5.95448034e-07 -1.58341036e-05  -0.000772873273   -0.0284581972
0.36                           0               0                0               0      0.998950659   -0.0340955123  -9.93122206e-06 -1.25026371e-05
                               0               0                0               0   8.43777044e-07 -1.63928008e-05      0.998947755    -0.034141545
                               0               0                0               0   -0.00120748565   -0.0341754681  -1.09542035e-05 -2.32422843e-05
                               0               0                0               0   6.21209993e-07 -1.90314174e-05   -0.00111734419   -0.0341295759
0.42                           0               0                0               0      0.998554402   -0.0397592955  -1.21872619e-05  -1.4229567e-05
                               0               0                0               0   8.72827088e-07 -1.90558509e-05      0.998550361   -0.0398132642
                               0               0                0               0   -0.00163573931   -0.0398519885  -1.32401017e-05 -2.70857461e-05
                               0               0                0               0    5.6657929e-07 -2.22237789e-05   -0.00152624942   -0.0397965497
0.48                           0               0                0               0      0.998092703   -0.0454176429   -1.4437214e-05 -1.59718665e-05
                               0               0                0               0   8.28140024e-07 -2.17423309e-05      0.998087339   -0.0454794739
                               0               0                0               0   -0.00212771772   -0.0455217429  -1.54539519e-05 -3.08190264e-05
                               0               0                0               0   4.32221109e-07 -2.54084857e-05   -0.00199950732   -0.0454580065
0.54                           0               0                0               0      0.997565704   -0.0510694622   -1.6680679e-05 -1.77292498e-05
                               0               0                0               0   7.08397981e-07 -2.44499461e-05      0.997558835   -0.0511390791
                               0               0                0               0   -0.00268328607   -0.0511836573  -1.76006242e-05 -3.44463134e-05
                               0               0                0               0   2.18917074e-07 -2.85828851e-05   -0.00253701122   -0.0511128369
0.6                            0               0                0               0      0.996973572    -0.056713666   -1.8917261e-05 -1.95014158e-05
                               0               0                0               0   5.12377305e-07 -2.71763266e-05      0.996965019   -0.0567909897
                               0               0                0               0   -0.00330228603   -0.0568366617  -1.96846132e-05 -3.79716128e-05
                               0               0                0               0  -7.24386979e-08 -3.17443805e-05   -0.00313862959   -0.0567599351
0.66                           0               0                0               0      0.996316498   -0.0623491725  -2.11465688e-05 -2.12880479e-05
                               0               0                0               0   2.38953583e-07 -2.99190326e-05      0.996306083   -0.0624341212
                               0               0                0               0   -0.00398453589   -0.0624796912  -2.17100702e-05 -4.13987545e-05
                               0               0                0               0   -4.4084387e-07 -3.48904367e-05    -0.0038042062   -0.0623981996
0.72                           0               0                0               0      0.995594698   -0.0679749059  -2.33682161e-05  -2.3088814e-05
                               0               0                0               0  -1.12893623e-07 -3.26755593e-05      0.995582247   -0.0680673955
                               0               0                0               0   -0.00472983078   -0.0681116861  -2.36808329e-05 -4.47313991e-05
                               0               0                0               0   -8.8519246e-07 -3.80185847e-05   -0.00453356022   -0.0680265335
0.78                           0               0                0               0      0.994808412   -0.0735897974  -2.55818221e-05 -2.49033666e-05
                               0               0                0               0  -5.44076354e-07 -3.54433422e-05      0.994793753   -0.0736897413
                               0               0                0               0   -0.00553794283   -0.0737315931  -2.56004515e-05 -4.79730452e-05
                               0               0                0               0  -1.40427968e-06 -4.11264273e-05   -0.00532648649   -0.0736438459
0.84                           0               0                0               0      0.993957901   -0.0791927856  -2.77870123e-05 -2.67313429e-05
                               0               0                0               0  -1.05539418e-06 -3.82197636e-05      0.993940867   -0.0793000951
                               0               0                0               0   -0.00640862146   -0.0793383655   -2.7472213e-05 -5.11270362e-05
                               0               0                0               0    -1.996807e-06 -4.42116426e-05   -0.00618275568   -0.0792490519
0.9                            0               0                0               0      0.993043455   -0.0847828175  -2.99834187e-05 -2.85723648e-05
                               0               0                0               0  -1.64753052e-06 -4.10021584e-05      0.993023878   -0.0848974016
                               0               0                0               0   -0.00734159358   -0.0849309641  -2.92991626e-05 -5.41965663e-05
                               0               0                0               0  -2.66138742e-06 -4.72719885e-05   -0.00710211456   -0.0848410737
0.96                           0               0                0               0      0.992065382   -0.0903588487  -3.21706807e-05 -3.04260391e-05
                               0               0                0               0  -2.32104933e-06 -4.37878204e-05      0.992043101   -0.0904806144
                               0               0                0               0   -0.00833656386   -0.0905083576   -3.1084124e-05 -5.71846881e-05
                               0               0                0               0  -3.39655093e-06 -5.03053063e-05   -0.00808428624    -0.090418841
1.02                           0               0                0               0      0.991024015   -0.0959198444  -3.43484457e-05 -3.22919577e-05
                               0               0                0               0  -3.07639227e-06 -4.65740094e-05      0.990998869   -0.0960486969
                               0               0                0               0   -0.00939321504   -0.0960695232  -3.28297168e-05 -6.00943184e-05
                               0               0                0               0  -4.20075004e-06 -5.33095237e-05   -0.00912897045   -0.0959812919
1.08                           0               0                0               0      0.989919711     -0.10146478  -3.65163691e-05 -3.41696979e-05
                               0               0                0               0  -3.91387631e-06 -4.93579583e-05      0.989891544    -0.101600622
                               0               0                0               0    -0.0105112082    -0.101613447  -3.45383734e-05 -6.29282446e-05
                               0               0                0               0  -5.07236546e-06 -5.62826574e-05    -0.0102358439    -0.101527373
1.14                           0               0                0               0      0.988752847    -0.106992641  -3.86741158e-05 -3.60588222e-05
                               0               0                0               0  -4.83369182e-06 -5.21368796e-05      0.988721504    -0.107135375
                               0               0                0               0    -0.0116901832    -0.107139126   -3.6212353e-05 -6.56891306e-05
                               0               0                0               0  -6.00971184e-06 -5.92228158e-05    -0.0114045605    -0.107056041
1.2                            0               0                0               0      0.987523822    -0.112502426  -4.08213599e-05 -3.79588791e-05
                               0               0                0               0   -5.8359011e-06 -5.49079736e-05      0.987489152    -0.112651951
                               0               0                0               0    -0.0129297589    -0.112645567  -3.78537562e-05  -6.8379523e-05
                               0               0                0               0  -7.01104352e-06 -6.21282009e-05    -0.0126347518    -0.112566263
1.26                           0               0                0               0      0.986233059    -0.117993143  -4.29577858e-05 -3.98694028e-05
                               0               0                0               0  -6.92043751e-06 -5.76684351e-05      0.986194914    -0.118149358
                               0               0                0               0    -0.0142295334    -0.118131785  -3.94645363e-05 -7.10018562e-05
                               0               0                0               0  -8.07456031e-06 -6.49971095e-05    -0.0139260273    -0.118057016
1.32                           0               0                0               0      0.984880999    -0.123463813  -4.50830884e-05  -4.1789914e-05
                               0               0                0               0  -8.08710506e-06 -6.04154613e-05      0.984839234    -0.123626615
                               0               0                0               0    -0.0155890847    -0.123596811  -4.10465112e-05 -7.35584581e-05
                               0               0                0               0  -9.19841323e-06 -6.78279348e-05    -0.0152779748    -0.123527288
1.38                           0               0                0               0      0.983468105    -0.128913473  -4.71969739e-05 -4.37199198e-05
                               0               0                0               0  -9.33557852e-06 -6.31462592e-05      0.983422578    -0.129082757
                               0               0                0               0    -0.0170079711    -0.129039684  -4.26013733e-05  -7.6051555e-05
                               0               0                0               0  -1.03807102e-05  -7.0619167e-05    -0.0166901611     -0.12897608
1.44                           0               0                0               0      0.981994861    -0.134341169  -4.92991601e-05 -4.56589145e-05
                               0               0                0               0   -1.0665404e-05 -6.58580531e-05      0.981945432     -0.13451683
                               0               0                0               0    -0.0184857312    -0.134459458  -4.41306993e-05 -7.84832767e-05
                               0               0                0               0  -1.16195216e-05 -7.33693935e-05    -0.0181621318    -0.134402405
1.5                            0               0                0               0      0.980461769    -0.139745964  -5.13893771e-05 -4.76063795e-05
                               0               0                0               0  -1.20760004e-05 -6.85480922e-05      0.980408302    -0.139927895
                               0               0                0               0    -0.0200218849    -0.139855198  -4.56359583e-05 -8.08556611e-05
                               0               0                0               0   -1.2912886e-05 -7.60772992e-05    -0.0196934125    -0.139805289
1.56                           0               0                0               0      0.978869353    -0.145126934  -5.34673676e-05  -4.9561784e-05
                               0               0                0               0  -1.35666605e-05 -7.12136579e-05      0.978811713    -0.145315028
                               0               0                0               0    -0.0216159332    -0.145225984    -4.711852e-05 -8.31706586e-05
                               0               0                0               0  -1.42588153e-05 -7.87416665e-05    -0.0212835084    -0.145183772
1.62                           0               0                0               0      0.977218152    -0.150483173  -5.55328877e-05 -5.15245854e-05
                               0               0                0               0   -1.5136554e-05 -7.38520709e-05      0.977156211     -0.15067732
                               0               0                0               0    -0.0232673592    -0.150570907  -4.85796616e-05 -8.54301362e-05
                               0               0                0               0  -1.56552999e-05 -8.13613741e-05    -0.0229319057    -0.150536906
1.68                           0               0                0               0      0.975508727    -0.155813786   -5.7585707e-05 -5.34942296e-05
                               0               0                0               0  -1.67847292e-05 -7.64606983e-05      0.975442355    -0.156013878
                               0               0                0               0    -0.0249756284    -0.155889076  -5.00205748e-05 -8.76358821e-05
                               0               0                0               0  -1.71003142e-05 -8.39353965e-05    -0.0246380714     -0.15586376
1.74                           0               0                0               0      0.973741655    -0.161117897  -5.96256091e-05 -5.54701517e-05
                               0               0                0               0  -1.85101172e-05 -7.90369607e-05      0.973670728    -0.161323823
                               0               0                0               0    -0.0267401889    -0.161179611  -5.14423715e-05 -8.97896089e-05
                               0               0                0               0  -1.85918212e-05 -8.64628029e-05     -0.026401454    -0.161163417
1.8                            0               0                0               0       0.97191753    -0.166394646  -6.16523922e-05 -5.74517763e-05
                               0               0                0               0  -2.03115346e-05 -8.15783384e-05      0.971841926    -0.166606296
                               0               0                0               0    -0.0285604723    -0.166441649  -5.28460894e-05 -9.18929575e-05
                               0               0                0               0  -2.01277771e-05 -8.89427556e-05     -0.028221484    -0.166434974
1.86                           0               0                0               0      0.970036964    -0.171643189  -6.36658695e-05  -5.9438518e-05
                               0               0                0               0  -2.21876881e-05  -8.4082378e-05      0.969956564     -0.17186045
                               0               0                0               0     -0.030435894    -0.171674343  -5.42326973e-05 -9.39475007e-05
                               0               0                0               0  -2.17061362e-05 -9.13745084e-05    -0.0300975745    -0.171677546
1.92                           0               0                0               0      0.968100585      -0.1768627  -6.56658694e-05 -6.14297822e-05
                               0               0                0               0  -2.41371789e-05 -8.65466978e-05      0.968015271    -0.177085461
                               0               0                0               0    -0.0323658537    -0.176876859  -5.56030997e-05 -9.59547463e-05
                               0               0                0               0  -2.33248549e-05 -9.37574048e-05    -0.0320291217    -0.176890263
1.98                           0               0                0               0      0.966109035    -0.182052369   -6.7652236e-05 -6.34249654e-05
                               0               0                0               0  -2.61585072e-05 -8.89689943e-05      0.966018695    -0.182280518
                               0               0                0               0    -0.0343497357    -0.182048383  -5.69581411e-05 -9.79161405e-05
                               0               0                0               0   -2.4981896e-05 -9.60908758e-05    -0.0340155055    -0.182072272
2.04                           0               0                0               0      0.964062973    -0.187211405  -6.96248293e-05 -6.54234558e-05
                               0               0                0               0  -2.82500777e-05 -9.13470467e-05      0.963967495     -0.18744483
                               0               0                0               0    -0.0363869101    -0.187188113    -5.829861e-05 -9.98330703e-05
                               0               0                0               0  -2.66752322e-05 -9.83744378e-05    -0.0360560896    -0.187222736
2.1                            0               0                0               0      0.961963072    -0.192339037  -7.15835255e-05 -6.74246342e-05
                               0               0                0               0  -3.04102049e-05  -9.3678722e-05      0.961862348    -0.192577623
                               0               0                0               0    -0.0384767325    -0.192295268  -5.96252424e-05 -0.000101706867
                               0               0                0               0    -2.840285e-05  -0.00010060769    -0.0381502229    -0.192340837
2.16                           0               0                0               0       0.95981002    -0.197434508  -7.35282178e-05 -6.94278739e-05
                               0               0                0               0  -3.26371189e-05 -9.59619794e-05      0.959703944    -0.197678144
                               0               0                0               0    -0.0406185451     -0.19736908  -6.09387255e-05 -0.000103538809
                               0               0                0               0  -3.01627533e-05 -0.000102790313    -0.0402972393    -0.197425773
2.22                           0               0                0               0      0.957604516    -0.202497084  -7.54588156e-05 -7.14325423e-05
                               0               0                0               0  -3.49289713e-05 -9.81948741e-05      0.957492984    -0.202745657
                               0               0                0               0    -0.0428116771    -0.202408802  -6.22397007e-05 -0.000105330122
                               0               0                0               0   -3.1952966e-05 -0.000104922063    -0.0424964587     -0.20247676
2.28                           0               0                0               0      0.955347273    -0.207526049  -7.73752458e-05 -7.34380008e-05
                               0               0                0               0  -3.72838415e-05 -0.000100375561      0.955230186    -0.207779444
                               0               0                0               0    -0.0450554451    -0.207413702  -6.35287663e-05 -0.000107081987
                               0               0                0               0  -3.37715353e-05 -0.000107002773    -0.0447471875    -0.207493034
2.34                           0               0                0               0      0.953039018    -0.212520703  -7.92774524e-05 -7.54436056e-05
                               0               0                0               0  -3.96997431e-05 -0.000102502299      0.952916276    -0.212778809
                               0               0                0               0    -0.0473491538    -0.212383066  -6.48064804e-05 -0.000108795535
                               0               0                0               0  -3.56165343e-05 -0.000109032349     -0.047048719    -0.212473847
2.4                            0               0                0               0      0.950680487    -0.217480371  -8.11653966e-05 -7.74487086e-05
                               0               0                0               0  -4.21746299e-05 -0.000104573449      0.950551994    -0.217743074
                               0               0                0               0    -0.0496920967    -0.217316198  -6.60733631e-05 -0.000110471855
                               0               0                0               0  -3.74860646e-05 -0.000111010763    -0.0494003343    -0.217418472
2.46                           0               0                0               0      0.948272428    -0.222404393  -8.30390575e-05 -7.94526578e-05
                               0               0                0               0  -4.47064031e-05 -0.000106587484      0.948138091    -0.222671581
                               0               0                0               0    -0.0520835561    -0.222212422  -6.73298992e-05 -0.000112111995
                               0               0                0               0  -3.93782583e-05 -0.000112938058    -0.0518013027    -0.222326198
2.52                           0               0                0               0        0.9458156    -0.227292133  -8.48984315e-05 -8.14547982e-05
                               0               0                0               0  -4.72929174e-05 -0.000108542982      0.945675328    -0.227563692
                               0               0                0               0    -0.0545228045    -0.227071077  -6.85765397e-05 -0.000113716961
                               0               0                0               0  -4.12912798e-05 -0.000114814335    -0.0542508823    -0.227196336
2.58                           0               0                0               0      0.943310771     -0.23214297  -8.67435328e-05 -8.34544722e-05
                               0               0                0               0  -4.99319878e-05 -0.000110438633      0.943164475     -0.23241879
                               0               0                0               0    -0.0570091043    -0.231891523  -6.98137044e-05 -0.000115287722
                               0               0                0               0  -4.32233284e-05 -0.000116639761    -0.0567483206    -0.232028215
2.64                           0               0                0               0      0.940758719    -0.236956308  -8.85743934e-05 -8.54510206e-05
                               0               0                0               0  -5.26213961e-05  -0.00011227324      0.940606312    -0.237236276
                               0               0                0               0    -0.0595417092    -0.236673137  -7.10417831e-05 -0.000116825212
                               0               0                0               0   -4.5172639e-05 -0.000118414556    -0.0592928553    -0.236821183
2.7                            0               0                0               0       0.93816023    -0.241731569   -9.0391063e-05 -8.74437831e-05
                               0               0                0               0  -5.53588975e-05 -0.000114045714      0.938001628    -0.242015574
                               0               0                0               0    -0.0621198638    -0.241415316  -7.22611377e-05 -0.000118330329
                               0               0                0               0  -4.71374839e-05 -0.000120138996    -0.0618837146    -0.241574607
2.76                           0               0                0               0        0.9355161    -0.246468195  -9.21936092e-05 -8.94320991e-05
                               0               0                0               0  -5.81422267e-05 -0.000115755079      0.935351219    -0.246756126
                               0               0                0               0    -0.0647428052    -0.246117475  -7.34721036e-05 -0.000119803937
                               0               0                0               0  -4.91161741e-05  -0.00012181341     -0.064520118    -0.246287876
2.82                           0               0                0               0      0.932827129     -0.25116565   -9.3982117e-05 -9.14153082e-05
                               0               0                0               0  -6.09691048e-05 -0.000117400471       0.93265589    -0.251457397
                               0               0                0               0    -0.0674097628    -0.250779048   -7.4674991e-05 -0.000121246872
                               0               0                0               0  -5.11070598e-05 -0.000123438174    -0.0672012767    -0.250960397
2.88                           0               0                0               0      0.930094126    -0.255823418  -9.57566892e-05  -9.3392751e-05