! TOUCHSTONE file generated by CST MICROWAVE STUDIO
! Date and time: Wed Apr 16 11:32:50 2025
! Project name: LOSSLESS_rogers4003c_air_gapped_wideband_balanced.cst
! Parameters = {h=2.5; lambda=10; period=5; phi=0; theta=0; thickness=0.508; w_mesh_1=2; w_mesh_2=2; w_patch_1=1.6; w_patch_2=1.6}
! Header version: 2018
! Port assignment regex: !\s*Touchstone port\s*([0-9]+)\s*=\s*(CST MWS port|CST DS port)\s*([0-9]+|Zmin|Zmax)\s*\(\"(.*)\"\)(\s*mode\s*([0-9]+))?.*
! Touchstone port assignment:
! Touchstone port 1 = CST MWS port Zmin ("") mode 1
! Touchstone port 2 = CST MWS port Zmin ("") mode 2
! Touchstone port 3 = CST MWS port Zmax ("") mode 1
! Touchstone port 4 = CST MWS port Zmax ("") mode 2
! S-Parameters are not renormalized. Unphysical impedance of 50 will be written to the file.
# GHz S RI R 50
0                              0               0                0               0      0.999980674  2.48979572e-05  -1.32722031e-06  -7.8378962e-07
                               0               0                0               0  -1.64239979e-06 -1.40209262e-06                1  2.74964605e-05
                               0               0                0               0   3.88875702e-05 -2.31554334e-05   3.45635985e-07  9.70640215e-08
                               0               0                0               0   1.67405081e-07  3.12113658e-07   3.82547511e-05 -2.55397427e-05
0.06                           0               0                0               0      0.999959256  -0.00577363626  -4.95344233e-07  1.11835818e-06
                               0               0                0               0  -6.12801304e-07  8.89063104e-07      0.999977017  -0.00577589317
                               0               0                0               0   -1.8659654e-05  -0.00579704388   1.43571162e-07  1.44863213e-06
                               0               0                0               0   7.52355356e-08  1.53450957e-06  -1.89493923e-05   -0.0058008248
0.1                            0               0                0               0      0.999907014  -0.00963815961   4.53282048e-08  2.35388664e-06
                               0               0                0               0   4.50655611e-08  2.35435611e-06      0.999906922  -0.00964292663
                               0               0                0               0  -9.29271644e-05  -0.00964591445   2.11493409e-08  2.35408649e-06
                               0               0                0               0   2.11645628e-08  2.35455324e-06  -9.30162326e-05  -0.00965068708
0.12                           0               0                0               0      0.999869518   -0.0115699298    3.1166843e-07   2.9622009e-06
                               0               0                0               0   3.65954695e-07   3.0693424e-06      0.999860853   -0.0115757503
                               0               0                0               0  -0.000140837865   -0.0115700785  -3.63156654e-08  2.80804631e-06
                               0               0                0               0   -3.6056396e-09  2.76607514e-06  -0.000140835408   -0.0115753648
0.18                           0               0                0               0      0.999711595   -0.0173627095   1.09537448e-06  4.75056614e-06
                               0               0                0               0   1.29833172e-06  5.14729168e-06      0.999678615   -0.0173709494
                               0               0                0               0  -0.000327690167   -0.0173408667  -1.93498574e-07  4.17448182e-06
                               0               0                0               0  -6.86437574e-08  4.00649681e-06    -0.0003274499   -0.0173477631
0.24                           0               0                0               0      0.999485659   -0.0231507072   1.85721417e-06  6.48610245e-06
                               0               0                0               0   2.18830304e-06  7.13060678e-06      0.999430445   -0.0231603658
                               0               0                0               0  -0.000579223264   -0.0231080144  -3.27481511e-07  5.54707112e-06
                               0               0                0               0  -1.19402593e-07  5.25543379e-06  -0.000578802904   -0.0231166217
0.3                            0               0                0               0      0.999191911   -0.0289326609   2.59852172e-06   8.1712931e-06
                               0               0                0               0   3.03941691e-06  9.02623599e-06      0.999116509   -0.0289428756
                               0               0                0               0  -0.000895407454   -0.0288701277  -4.37801565e-07  6.92490462e-06
                               0               0                0               0  -1.55405559e-07  6.51251705e-06  -0.000894867881   -0.0288805424
0.36                           0               0                0               0      0.998830589   -0.0347073155   3.32053487e-06  9.80846865e-06
                               0               0                0               0   3.85485171e-06  1.08404685e-05      0.998737003    -0.034717357
                               0               0                0               0   -0.00127617669   -0.0346258137  -5.24032271e-07  8.30703171e-06
                               0               0                0               0  -1.76176982e-07  7.77734835e-06   -0.00127558177   -0.0346381283
0.42                           0               0                0               0      0.998401964   -0.0404734247    4.0244033e-06  1.13998184e-05
                               0               0                0               0   4.63746281e-06  1.25790103e-05      0.998292149   -0.0404826909
                               0               0                0               0   -0.00172142866   -0.0403736821  -5.85786934e-07  9.69246197e-06
                               0               0                0               0  -1.81243485e-07  9.04949922e-06   -0.00172084506   -0.0403879846
0.48                           0               0                0               0      0.997906336   -0.0462297512   4.71119624e-06  1.29474008e-05
                               0               0                0               0   5.38982244e-06  1.42470507e-05      0.997782198   -0.0462377615
                               0               0                0               0   -0.00223102496   -0.0461123461  -6.22721944e-07  1.10801667e-05
                               0               0                0               0  -1.70135487e-07    1.032851e-05   -0.00223052199   -0.0461287202
0.54                           0               0                0               0      0.997344041   -0.0519750682    5.3819094e-06   1.4453153e-05
                               0               0                0               0   6.11425391e-06  1.58493186e-05      0.997207427    -0.051981458
                               0               0                0               0   -0.00280479127   -0.0518404237  -6.34540066e-07  1.24690809e-05
                               0               0                0               0  -1.42388803e-07  1.16138892e-05   -0.00280444068   -0.0518589487
0.6                            0               0                0               0      0.996715446   -0.0577081603   6.03747105e-06  1.59188994e-05
                               0               0                0               0   6.81286099e-06   1.7390133e-05      0.996568141   -0.0577126745
                               0               0                0               0   -0.00344251764   -0.0575565392  -6.20993672e-07  1.38581051e-05
                               0               0                0               0  -9.75463712e-08  1.29051123e-05   -0.00344239343   -0.0575772896
0.66                           0               0                0               0      0.996020949   -0.0634278248   6.67874767e-06    1.734636e-05
                               0               0                0               0   7.48755322e-06  1.88734462e-05      0.995864673   -0.0634303119
                               0               0                0               0   -0.00414395872   -0.0632593237  -5.81887891e-07   1.5246108e-05
                               0               0                0               0   -3.5160087e-08  1.42016211e-05   -0.00414413697   -0.0632823698
0.72                           0               0                0               0      0.995260979   -0.0691328724   7.30654894e-06  1.87371574e-05
                               0               0                0               0   8.14006785e-06  2.03028816e-05      0.995097383    -0.069133278
                               0               0                0               0   -0.00490883419    -0.068947417  -5.17083652e-07  1.66319289e-05
                               0               0                0               0   4.52072421e-08  1.55028233e-05   -0.00490939286   -0.0689728242
0.78                           0               0                0               0      0.994435997    -0.074822128   7.92163231e-06  2.00928234e-05
                               0               0                0               0   8.77198886e-06  2.16817673e-05      0.994266661   -0.0748204891
                               0               0                0               0   -0.00573682906   -0.0746194682  -4.26500592e-07  1.80143811e-05
                               0               0                0               0   1.43979825e-07  1.68080916e-05   -0.00573784781   -0.0746472974
0.84                           0               0                0               0      0.993546493   -0.0804944325   8.52470716e-06  2.14148056e-05
                               0               0                0               0   9.38476358e-06  2.30131656e-05       0.99337292   -0.0804908704
                               0               0                0               0   -0.00662759418   -0.0802741372  -3.10119785e-07  1.93922547e-05
                               0               0                0               0   2.61566702e-07  1.81167635e-05   -0.00662915419   -0.0803044446
0.9                            0               0                0               0      0.992592986   -0.0861486426   9.11643852e-06  2.27044728e-05
                               0               0                0               0    9.9797171e-06   2.4299899e-05      0.992416604   -0.0861433575
                               0               0                0               0   -0.00758074669   -0.0859100955  -1.67986288e-07  2.07643205e-05
                               0               0                0               0   3.98359443e-07  1.94281404e-05   -0.00758293043   -0.0859429326
0.96                           0               0                0               0      0.991576024   -0.0917836326   9.69745051e-06  2.39631201e-05
                               0               0                0               0   1.05580651e-05   2.5544573e-05      0.991398183   -0.0917768967
                               0               0                0               0   -0.00859587053   -0.0915260275  -2.11451402e-10  2.21293335e-05
                               0               0                0               0    5.5472974e-07  2.07414881e-05   -0.00859876163   -0.0915614412
1.02                           0               0                0               0      0.990496185   -0.0973982951   1.02683294e-05  2.51919739e-05
                               0               0                0               0   1.11209247e-05  2.67495964e-05      0.990318152   -0.0973904466
                               0               0                0               0   -0.00967251705   -0.0971206314   1.93025021e-07  2.34860373e-05
                               0               0                0               0    7.3102689e-07  2.20560358e-05   -0.00967620005   -0.0971586639
1.08                           0               0                0               0      0.989354073    -0.102991541   1.08296266e-05  2.63921964e-05
                               0               0                0               0   1.16693248e-05     2.79172e-05      0.989177035    -0.102982978
                               0               0                0               0    -0.0108102056    -0.102692621   4.11473296e-07  2.48331681e-05
                               0               0                0               0   9.27575178e-07  2.33709771e-05    -0.0108147658    -0.102733309
1.14                           0               0                0               0      0.988150319    -0.108562303   1.13818609e-05  2.75648895e-05
                               0               0                0               0   1.22042142e-05  2.90494521e-05      0.987975381    -0.108553477
                               0               0                0               0     -0.012008424    -0.108240724   6.54811947e-07  2.61694592e-05
                               0               0                0               0   1.14467117e-06  2.46854695e-05    -0.0120139474    -0.108284102
1.2                            0               0                0               0       0.98688558    -0.114109532   1.19255213e-05  2.87110988e-05
                               0               0                0               0   1.27264696e-05  3.01482734e-05      0.986713764    -0.114100943
                               0               0                0               0    -0.0132666297    -0.113763688   9.22646818e-07  2.74936459e-05
                               0               0                0               0   1.38258094e-06  2.59986351e-05    -0.0132732025    -0.113809783
1.26                           0               0                0               0      0.985560539    -0.119632202   1.24610688e-05  2.98318168e-05
                               0               0                0               0   1.32369024e-05  3.12154496e-05      0.985392785    -0.119624392
                               0               0                0               0    -0.0145842499    -0.119260275   1.21451025e-06  2.88044702e-05
                               0               0                0               0   1.64153715e-06  2.73095609e-05    -0.0145919586    -0.119309111
1.32                           0               0                0               0      0.984175904    -0.125129308   1.29889386e-05  3.09279867e-05
                               0               0                0               0   1.37362647e-05  3.22526435e-05      0.984013068    -0.125122855
                               0               0                0               0    -0.0159606828     -0.12472927    1.5298607e-06  3.01006856e-05
                               0               0                0               0   1.92173621e-06  2.86173003e-05    -0.0159696139    -0.124780865
1.38                           0               0                0               0      0.982732406    -0.130599869   1.35095416e-05  3.20005047e-05
                               0               0                0               0   1.42252545e-05  3.32614048e-05      0.982575264    -0.130595381
                               0               0                0               0     -0.017395298    -0.130169472   1.86808268e-06  3.13810625e-05
                               0               0                0               0   2.22333522e-06  2.99208732e-05    -0.0174055379    -0.130223842
1.44                           0               0                0               0      0.981230798    -0.136042927   1.40232666e-05  3.30502234e-05
                               0               0                0               0   1.47045211e-05  3.42431797e-05      0.981080044    -0.136041039
                               0               0                0               0    -0.0188874376    -0.135579706   2.22848725e-06  3.26443929e-05
                               0               0                0               0   2.54644904e-06  3.12192681e-05    -0.0188990725     -0.13563686
1.5                            0               0                0               0      0.979671859    -0.141457549   1.45304815e-05   3.4077954e-05
                               0               0                0               0   1.51746688e-05  3.51993198e-05      0.979528107    -0.141458914
                               0               0                0               0    -0.0204364169    -0.140958814   2.61031273e-06  3.38894959e-05
                               0               0                0               0   2.89114721e-06  3.25114428e-05    -0.0204495324    -0.141018758
1.56                           0               0                0               0      0.978056385    -0.146842825   1.50315344e-05  3.50844692e-05
                               0               0                0               0   1.56362611e-05  3.61310889e-05       0.97792017    -0.146848114
                               0               0                0               0    -0.0220415253    -0.146305663   3.01272605e-06  3.51152225e-05
                               0               0                0               0     3.257451e-06  3.37963269e-05    -0.0220562065    -0.146368398
1.62                           0               0                0               0      0.976385195    -0.152197872   1.55267558e-05  3.60705047e-05
                               0               0                0               0   1.60898241e-05  3.70396708e-05      0.976256975    -0.152207764
                               0               0                0               0    -0.0237020273     -0.15161914   3.43482432e-06  3.63204608e-05
                               0               0                0               0   3.64533039e-06  3.50728236e-05    -0.0237183583    -0.151684663
1.68                           0               0                0               0      0.974659127    -0.157521833   1.60164588e-05  3.70367621e-05
                               0               0                0               0   1.65358498e-05  3.79261748e-05      0.974539285    -0.157537014
                               0               0                0               0    -0.0254171632    -0.156898156   3.87563698e-06  3.75041409e-05
                               0               0                0               0   4.05470114e-06  3.63398117e-05    -0.0254352274    -0.156966461
1.74                           0               0                0               0      0.972879036    -0.162813875   1.65009408e-05  3.79839103e-05
                               0               0                0               0   1.69747985e-05   3.8791642e-05      0.972767884    -0.162835032
                               0               0                0               0    -0.0271861503    -0.162141648   4.33412826e-06  3.86652395e-05
                               0               0                0               0   4.48542196e-06  3.75961484e-05    -0.0272060297    -0.162212724
1.8                            0               0                0               0      0.971045799    -0.168073196   1.69804845e-05  3.89125874e-05
                               0               0                0               0   1.74071019e-05  3.96370501e-05      0.970943574    -0.168101013
                               0               0                0               0    -0.0290081834    -0.167348575   4.80920011e-06  3.98027849e-05
                               0               0                0               0   4.93729174e-06  3.88406725e-05    -0.0290299593    -0.167422406
1.86                           0               0                0               0      0.969160305    -0.173299017   1.74553586e-05  3.98234028e-05
                               0               0                0               0   1.78331651e-05   4.0463318e-05      0.969067177    -0.173334172
                               0               0                0               0    -0.0308824366    -0.172517923   5.29969549e-06  4.09158608e-05
                               0               0                0               0   5.41004691e-06  4.00722069e-05    -0.0309061885    -0.172594489
1.92                           0               0                0               0      0.967223462    -0.178490588   1.79258188e-05  4.07169381e-05
                               0               0                0               0   1.82533687e-05  4.12713108e-05      0.967139536    -0.178533749
                               0               0                0               0    -0.0328080633    -0.177648701   5.80440198e-06   4.2003611e-05
                               0               0                0               0     5.903359e-06  4.12895625e-05    -0.0328338694     -0.17772798
1.98                           0               0                0               0      0.965236191     -0.18364719   1.83921086e-05  4.15937493e-05
                               0               0                0               0   1.86680706e-05  4.20618429e-05      0.965161507     -0.18369901
                               0               0                0               0     -0.034784198    -0.182739946    6.3220558e-06  4.30652428e-05
                               0               0                0               0   6.41683234e-06  4.24915418e-05    -0.0348121348    -0.182821913
2.04                           0               0                0               0       0.96319943    -0.188768127   1.88544602e-05  4.24543676e-05
                               0               0                0               0   1.90776081e-05  4.28356818e-05      0.963133968    -0.188829244
                               0               0                0               0    -0.0368099568    -0.187790722   6.85134613e-06  4.41000307e-05
                               0               0                0               0   6.95000202e-06  4.36769429e-05    -0.0368400992    -0.187875345
2.1                            0               0                0               0      0.961114126    -0.193852737    1.9313095e-05  4.32993012e-05
                               0               0                0               0   1.94822991e-05   4.3593552e-05      0.961057808    -0.193923766
                               0               0                0               0    -0.0388844387    -0.192800118   7.39091965e-06  4.51073194e-05
                               0               0                0               0   7.50233203e-06  4.48445637e-05    -0.0389168597    -0.192887364
2.16                           0               0                0               0      0.958981241    -0.198900382   1.97682243e-05  4.41290359e-05
                               0               0                0               0   1.98824439e-05   4.4336137e-05      0.958933935    -0.198981918
                               0               0                0               0    -0.0410067266     -0.19776725   7.93938539e-06  4.60865264e-05
                               0               0                0               0   8.07321376e-06  4.59932061e-05    -0.0410414972    -0.197857082
2.22                           0               0                0               0      0.956801748    -0.203910455   2.02200499e-05  4.49440371e-05
                               0               0                0               0    2.0278326e-05  4.50640828e-05      0.956763268    -0.204003068
                               0               0                0               0     -0.043175888    -0.202691264   8.49531974e-06  4.70371449e-05
                               0               0                0               0   8.66196477e-06  4.71216813e-05    -0.0432130773    -0.202783642
2.28                           0               0                0               0      0.954576628    -0.208882381   2.06687647e-05  4.57447498e-05
                               0               0                0               0   2.06702138e-05  4.57780003e-05      0.954546742    -0.208986611
                               0               0                0               0    -0.0453909765     -0.20757133   9.05727164e-06  4.79587448e-05
                               0               0                0               0   9.26782784e-06  4.82288142e-05    -0.0454306514    -0.207666212
2.34                           0               0                0               0      0.952306875    -0.213815609   2.11145534e-05  4.65316007e-05
                               0               0                0               0   2.10583615e-05  4.64784674e-05      0.952285303    -0.213931969
                               0               0                0               0    -0.0476510327    -0.212406649   9.62376791e-06  4.88509751e-05
                               0               0                0               0   9.88997049e-06  4.93134488e-05    -0.0476932579    -0.212503987
2.4                            0               0                0               0      0.949993488    -0.218709621   2.15575924e-05  4.73049983e-05
                               0               0                0               0   2.14430099e-05  4.71660314e-05      0.949979908    -0.218838592
                               0               0                0               0    -0.0499550849    -0.217196449   1.01933187e-05  4.97135643e-05
                               0               0                0               0   1.05274848e-05  5.03744531e-05    -0.0499999228    -0.217296195
2.46                           0               0                0               0      0.947637476    -0.223563928   2.19980509e-05  4.80653343e-05
                               0               0                0               0   2.18243876e-05  4.78412108e-05      0.947631527    -0.223705957
                               0               0                0               0    -0.0523021505    -0.221939984   1.07644227e-05   5.0546321e-05
                               0               0                0               0   1.11793878e-05  5.14107249e-05    -0.0523496611    -0.222042086
2.52                           0               0                0               0      0.945239852     -0.22837807   2.24360913e-05   4.8812984e-05
                               0               0                0               0    2.2202712e-05  4.85044973e-05      0.945241138    -0.228533571
                               0               0                0               0    -0.0546912369    -0.226636539   1.13355728e-05  5.13491346e-05
                               0               0                0               0   1.18446217e-05  5.24211967e-05    -0.0547414779    -0.226740942
2.58                           0               0                0               0      0.942801637    -0.233151616   2.28718688e-05  4.95483075e-05
                               0               0                0               0   2.25781895e-05  4.91563573e-05      0.942809726    -0.233320967
                               0               0                0               0    -0.0571213424    -0.231285425   1.19052615e-05   5.2121974e-05
                               0               0                0               0   1.25220559e-05  5.34048415e-05     -0.057174369    -0.231392074
2.64                           0               0                0               0      0.940323854    -0.237884165    2.3305533e-05  5.02716502e-05
                               0               0                0               0   2.29510168e-05  4.97972337e-05      0.940338288    -0.238067709
                               0               0                0               0    -0.0595914575    -0.235885983   1.24719859e-05   5.2864888e-05
                               0               0                0               0   1.32104876e-05  5.43606785e-05    -0.0596473222    -0.235994818
2.7                            0               0                0               0      0.937807533    -0.242575346    2.3737227e-05  5.09833437e-05
                               0               0                0               0   2.33213813e-05  5.04275472e-05      0.937827824    -0.242773387
                               0               0                0               0    -0.0621005655    -0.240437581   1.30342532e-05  5.35780031e-05
                               0               0                0               0   1.39086445e-05  5.52877777e-05    -0.0621593184     -0.24054854
2.76                           0               0                0               0      0.935253705    -0.247224816   2.41670888e-05   5.1683706e-05
                               0               0                0               0   2.36894616e-05  5.10476975e-05      0.935279342    -0.247437622
                               0               0                0               0    -0.0646476438    -0.244939614   1.35905854e-05  5.42615227e-05
                               0               0                0               0   1.46151873e-05  5.61852663e-05    -0.0647093321    -0.245052636
2.82                           0               0                0               0      0.932663403    -0.251832263   2.45952508e-05  5.23730428e-05
                               0               0                0               0   2.40554283e-05  5.16580648e-05      0.932693855    -0.252060062
                               0               0                0               0    -0.0672316645    -0.249391508   1.41395242e-05  5.49157246e-05
                               0               0                0               0   1.53287123e-05   5.7052333e-05    -0.0672963332    -0.249506526
2.88                           0               0                0               0      0.930037663    -0.256397402   2.50218406e-05  5.30516474e-05