! TOUCHSTONE file generated by CST MICROWAVE STUDIO
! Date and time: Wed Apr 16 11:32:51 2025
! Project name: LOSSLESS_rogers4003c_air_gapped_wideband_balanced.cst
! Parameters = {h=3; lambda=10; period=5; phi=0; theta=0; thickness=0.508; w_mesh_1=2; w_mesh_2=2; w_patch_1=1.6; w_patch_2=1.6}
! Header version: 2018
! Port assignment regex: !\s*Touchstone port\s*([0-9]+)\s*=\s*(CST MWS port|CST DS port)\s*([0-9]+|Zmin|Zmax)\s*\(\"(.*)\"\)(\s*mode\s*([0-9]+))?.*
! Touchstone port assignment:
! Touchstone port 1 = CST MWS port Zmin ("") mode 1
! Touchstone port 2 = CST MWS port Zmin ("") mode 2
! Touchstone port 3 = CST MWS port Zmax ("") mode 1
! Touchstone port 4 = CST MWS port Zmax ("") mode 2
! S-Parameters are not renormalized. Unphysical impedance of 50 will be written to the file.
# GHz S RI R 50
0                              0               0                0               0      0.999989577  5.29407449e-05   -3.3464094e-07  2.28618424e-07
                               0               0                0               0  -5.11152232e-07  1.04939897e-07      0.999964057  0.000112028231
                               0               0                0               0   2.03991941e-05 -2.06447646e-05  -1.56038664e-07 -6.70528709e-08
                               0               0                0               0   8.99255214e-08  2.07112379e-07   3.24234735e-05 -2.16827804e-05
0.06                           0               0                0               0      0.999962061  -0.00583442253  -1.20152418e-07  9.01581689e-07
                               0               0                0               0  -1.88858279e-07  8.54630319e-07      0.999952609  -0.00581028988
                               0               0                0               0  -2.65670713e-05  -0.00586756762   -5.6134494e-08  7.85958128e-07
                               0               0                0               0   4.07768611e-08  8.92965461e-07  -2.19481597e-05  -0.00586698892
0.1                            0               0                0               0      0.999904699   -0.0097572783   2.62080036e-08  1.35099904e-06
                               0               0                0               0   2.66586922e-08   1.3530748e-06      0.999904733  -0.00975557207
                               0               0                0               0  -9.50246989e-05  -0.00976512253   1.26446786e-08  1.35110409e-06
                               0               0                0               0   1.26439177e-08  1.35318384e-06   -9.5038333e-05  -0.00976339662
0.12                           0               0                0               0      0.999864336   -0.0117179409   1.00401538e-07  1.57593821e-06
                               0               0                0               0   1.34613825e-07  1.60189073e-06      0.999868758   -0.0117271771
                               0               0                0               0  -0.000140402932   -0.0117136041   4.76723596e-08  1.63261874e-06
                               0               0                0               0  -1.24961644e-11   1.5841696e-06   -0.00014264283   -0.0117112859
0.18                           0               0                0               0      0.999696622   -0.0175962727   3.27046927e-07  2.25166961e-06
                               0               0                0               0    4.5926717e-07  2.34670662e-06      0.999712833   -0.0176372244
                               0               0                0               0  -0.000321142091   -0.0175571542    1.5524868e-07  2.47293021e-06
                               0               0                0               0  -3.22616714e-08  2.28055655e-06  -0.000329706155   -0.0175529922
0.24                           0               0                0               0      0.999459171   -0.0234680843   5.59809405e-07  2.92875768e-06
                               0               0                0               0   7.85104782e-07  3.08906236e-06      0.999485204   -0.0235390359
                               0               0                0               0  -0.000568774011   -0.0233966171   2.66461816e-07  3.30689496e-06
                               0               0                0               0  -5.57930051e-08  2.98194825e-06  -0.000583140089    -0.023390525
0.3                            0               0                0               0      0.999152273   -0.0293320509   7.98714271e-07  3.60718441e-06
                               0               0                0               0   1.11212963e-06  3.82894117e-06      0.999186276   -0.0294312309
                               0               0                0               0  -0.000883243966   -0.0292303926   3.81179665e-07  4.13451658e-06
                               0               0                0               0  -7.04325412e-08  3.68815668e-06  -0.000902902945   -0.0292223017
0.36                           0               0                0               0      0.998776254   -0.0351868583   1.04378644e-06  4.28693197e-06
                               0               0                0               0   1.44034462e-06  4.56632504e-06      0.998816493   -0.0353124445
                               0               0                0               0   -0.00126445317   -0.0350568834   4.99270654e-07  4.95579983e-06
                               0               0                0               0  -7.60105301e-08  4.39898376e-06   -0.00128890949   -0.0350467414
0.42                           0               0                0               0      0.998331477   -0.0410312038   1.29505044e-06  4.96798277e-06
                               0               0                0               0   1.76975262e-06  5.30119475e-06      0.998376336   -0.0411813293
                               0               0                0               0   -0.00171225896   -0.0408744959   6.20603725e-07  5.77075052e-06
                               0               0                0               0  -7.23619524e-08  5.11422125e-06    -0.0017410311   -0.0408622666
0.48                           0               0                0               0      0.997818338   -0.0468637972   1.55253037e-06  5.65031942e-06
                               0               0                0               0   2.10035645e-06  6.03352977e-06      0.997866321   -0.0470365564
                               0               0                0               0   -0.00222647506   -0.0466816421   7.45048308e-07  6.57937558e-06
                               0               0                0               0  -5.93270608e-08  5.83365066e-06     -0.002259096   -0.0466673047
0.54                           0               0                0               0      0.997237268   -0.0526833623   1.81624989e-06  6.33392475e-06
                               0               0                0               0    2.4321589e-06  6.76330828e-06      0.997287001   -0.0528768162
                               0               0                0               0   -0.00280687195   -0.0524767412   8.72474305e-07  7.38168295e-06
                               0               0                0               0  -3.67519408e-08  6.55704323e-06   -0.00284288952   -0.0524602896
0.6                            0               0                0               0      0.996588735   -0.0584886379   2.08623219e-06  7.01878185e-06
                               0               0                0               0   2.76516275e-06  7.49050704e-06      0.996638962   -0.0587008203
                               0               0                0               0   -0.00345317719    -0.058258221   1.00275207e-06   8.1776816e-06
                               0               0                0               0  -4.48908931e-09  7.28415989e-06   -0.00349215452    -0.058239663
0.66                           0               0                0               0      0.995873237    -0.064278379   2.36249997e-06  7.70487404e-06
                               0               0                0               0   3.09937075e-06  8.21510145e-06      0.995922825   -0.0645073019
                               0               0                0               0   -0.00416507595   -0.0640245196   1.13575238e-06  8.96738146e-06
                               0               0                0               0     3.760199e-08  8.01475127e-06   -0.00420659176   -0.0640038763
0.72                           0               0                0               0      0.995091307   -0.0700513576   2.64507541e-06  8.39218491e-06
                               0               0                0               0   3.43478565e-06  8.93706541e-06      0.995139243   -0.0702950173
                               0               0                0               0    -0.0049422115   -0.0697740867   1.27134641e-06  9.75079344e-06
                               0               0                0               0   8.96541751e-08  8.74855769e-06   -0.00498586041   -0.0697513914
0.78                           0               0                0               0      0.994243511   -0.0758063642   2.93398013e-06  9.08069832e-06
                               0               0                0               0   3.77141021e-06  9.65637132e-06      0.994288902   -0.0760627466
                               0               0                0               0   -0.00578418582   -0.0755053849   1.40940573e-06  1.05279294e-05
                               0               0                0               0     1.517921e-07  9.48530929e-06   -0.00582957863   -0.0754806828
0.84                           0               0                0               0      0.993330444   -0.0815422083   3.22923519e-06   9.7703984e-06
                               0               0                0               0   4.10924722e-06    1.037299e-05      0.993372518   -0.0818092948
                               0               0                0               0   -0.00669056024   -0.0812168915   1.54980224e-06  1.12988019e-05
                               0               0                0               0   2.24131514e-07   1.0224726e-05   -0.00673732414   -0.0811902388
0.9                            0               0                0               0      0.992352736   -0.0872577201     3.530861e-06  1.04612696e-05
                               0               0                0               0   4.44829949e-06  1.10868908e-05      0.992390838   -0.0875334929
                               0               0                0               0   -0.00766085616   -0.0869070997   1.69240817e-06  1.20634248e-05
                               0               0                0               0    3.0677863e-07  1.09665179e-05   -0.00770863491   -0.0868785628
0.96                           0               0                0               0      0.991311045   -0.0929517509   3.83887735e-06  1.11532966e-05
                               0               0                0               0   4.78856989e-06   1.1798041e-05      0.991344637   -0.0932341983
                               0               0                0               0   -0.00869455582     -0.09257452   1.83709606e-06  1.28218123e-05
                               0               0                0               0   3.99829463e-07   1.1710385e-05   -0.00874300991   -0.0925441746
1.02                           0               0                0               0      0.990206058   -0.0986231741   4.15330332e-06  1.18464644e-05
                               0               0                0               0   5.13006136e-06  1.25064067e-05       0.99023472   -0.0989102963
                               0               0                0               0   -0.00979110309   -0.0982176811   1.98373871e-06  1.35739799e-05
                               0               0                0               0   5.03369158e-07  1.24560178e-05   -0.00983990987   -0.0981856118
1.08                           0               0                0               0      0.989038492    -0.104270887   4.47415726e-06  1.25407585e-05
                               0               0                0               0   5.47277693e-06  1.32119518e-05      0.989061917      -0.1045607
                               0               0                0               0    -0.0109499044    -0.103835132   2.13220915e-06  1.43199435e-05
                               0               0                0               0    6.1747131e-07  1.32030973e-05    -0.0109987581    -0.103801431
1.14                           0               0                0               0      0.987809092    -0.109893809   4.80145676e-06  1.32361645e-05
                               0               0                0               0   5.81671972e-06  1.39146386e-05      0.987827085    -0.110184353
                               0               0                0               0    -0.0121703296    -0.109425442   2.28238063e-06    1.505972e-05
                               0               0                0               0   7.42197285e-07  1.39512954e-05    -0.0122189415     -0.10939021
1.2                            0               0                0               0      0.986518629    -0.115490887   5.13521855e-06  1.39326684e-05
                               0               0                0               0   6.16189299e-06  1.46144272e-05      0.986531106    -0.115780227
                               0               0                0               0    -0.0134517131    -0.114987204   2.43412657e-06   1.5793327e-05
                               0               0                0               0    8.7759553e-07  1.47002751e-05    -0.0134998113    -0.114950545
1.26                           0               0                0               0      0.985167901    -0.121061092   5.47545852e-06  1.46302565e-05
                               0               0                0               0   6.50830013e-06   1.5311276e-05      0.985174886    -0.121347325
                               0               0                0               0    -0.0147933545    -0.120519033   2.58732053e-06  1.65207828e-05
                               0               0                0               0   1.02370089e-06  1.54496909e-05    -0.0148406842     -0.12048106
1.32                           0               0                0               0      0.983757732    -0.126603421   5.82219163e-06  1.53289157e-05
                               0               0                0               0   6.85594473e-06  1.60051414e-05      0.983759353    -0.126884681
                               0               0                0               0    -0.0161945201    -0.126019567    2.7418362e-06  1.72421066e-05
                               0               0                0               0   1.18053392e-06  1.61991892e-05    -0.0162408434    -0.125980397
1.38                           0               0                0               0      0.982288968    -0.132116899   6.17543182e-06  1.60286331e-05
                               0               0                0               0   7.20483056e-06  1.66959773e-05      0.982285456    -0.132391361
                               0               0                0               0    -0.0176544438    -0.131487473   2.89754731e-06  1.79573181e-05
                               0               0                0               0   1.34810021e-06  1.69484086e-05    -0.0176995393    -0.131447226
1.44                           0               0                0               0      0.980762479     -0.13760058   6.53519203e-06   1.6729396e-05
                               0               0                0               0   7.55496163e-06  1.73837358e-05      0.980754168    -0.137866461
                               0               0                0               0    -0.0191723282    -0.136921442   3.05432766e-06  1.86664376e-05
                               0               0                0               0   1.52638971e-06  1.76969808e-05    -0.0192159914    -0.136880243
1.5                            0               0                0               0      0.979179159    -0.143053543   6.90148405e-06  1.74311925e-05
                               0               0                0               0   7.90634221e-06  1.80683667e-05      0.979166475    -0.143309114
                               0               0                0               0    -0.0207473457    -0.142320192   3.21205105e-06  1.93694863e-05
                               0               0                0               0   1.71537609e-06  1.84445306e-05    -0.0207893885    -0.142278168
1.56                           0               0                0               0      0.977539922    -0.148474901    7.2743185e-06  1.81340107e-05
                               0               0                0               0   8.25897685e-06  1.87498172e-05      0.977523387    -0.148718482
                               0               0                0               0    -0.0223786399     -0.14768247   3.37059123e-06   2.0066486e-05
                               0               0                0               0   1.91501603e-06  1.91906766e-05    -0.0224188907    -0.147639751
1.62                           0               0                0               0      0.975845703    -0.153863791   7.65370476e-06  1.88378392e-05
                               0               0                0               0   8.61287045e-06  1.94280323e-05      0.975825928    -0.154093762
                               0               0                0               0    -0.0240653268    -0.153007052   3.52982188e-06  2.07574588e-05
                               0               0                0               0   2.12524868e-06  1.99350322e-05    -0.0241036297    -0.152963767
1.68                           0               0                0               0      0.974097454    -0.159219385   8.03965083e-06  1.95426673e-05
                               0               0                0               0   8.96802826e-06  2.01029545e-05      0.974075139    -0.159434185
                               0               0                0               0    -0.0258064959    -0.158292741   3.68961658e-06  2.14424279e-05
                               0               0                0               0   2.34599498e-06  2.06772058e-05    -0.0258427111    -0.158249025
1.74                           0               0                0               0      0.972296148    -0.164540883   8.43216333e-06  2.02484843e-05
                               0               0                0               0   9.32445595e-06  2.07745237e-05      0.972272073    -0.164739015
                               0               0                0               0    -0.0276012113    -0.163538375   3.84984874e-06  2.21214167e-05
                               0               0                0               0   2.57715709e-06  2.14168016e-05    -0.0276352146    -0.163494358
1.8                            0               0                0               0      0.970442774    -0.169827517   8.83124733e-06  2.09552801e-05
                               0               0                0               0   9.68215965e-06   2.1442677e-05        0.9704178    -0.170007552
                               0               0                0               0    -0.0294485137    -0.168742819   4.01039159e-06  2.27944494e-05
                               0               0                0               0   2.81861785e-06  2.21534206e-05    -0.0294801959    -0.168698633
1.86                           0               0                0               0      0.968538337    -0.175078551    9.2369063e-06  2.16630451e-05
                               0               0                0               0    1.0041146e-05   2.2107349e-05        0.9685134    -0.175239129
                               0               0                0               0    -0.0313474208    -0.173904971    4.1711181e-06  2.34615506e-05
                               0               0                0               0   3.07024021e-06   2.2886661e-05     -0.031376688    -0.173860746
1.92                           0               0                0               0      0.966583857    -0.180293278   9.64914198e-06  2.23717701e-05
                               0               0                0               0   1.04014221e-05  2.27684711e-05      0.966559965    -0.180433113
                               0               0                0               0    -0.0332969292     -0.17902376   4.33190099e-06  2.41227457e-05
                               0               0                0               0   3.33186678e-06  2.36161193e-05    -0.0333237019    -0.178979626
1.98                           0               0                0               0      0.964580369    -0.185471028   1.00679543e-05  2.30814461e-05
                               0               0                0               0   1.07629959e-05   2.3425972e-05      0.964558596    -0.185588909
                               0               0                0               0    -0.0352960156    -0.184098147   4.49261262e-06  2.47780604e-05
                               0               0                0               0   3.60331933e-06  2.43413911e-05    -0.0353202286    -0.184054232
2.04                           0               0                0               0       0.96252892    -0.190611158   1.04933412e-05  2.37920649e-05
                               0               0                0               0   1.11258757e-05  2.40797774e-05      0.962510405    -0.190705952
                               0               0                0               0     -0.037343638    -0.189127128   4.65312498e-06   2.5427521e-05
                               0               0                0               0   3.88439837e-06  2.50620721e-05    -0.0373652399    -0.189083555
2.1                            0               0                0               0      0.960430567    -0.195713063   1.09252986e-05  2.45036183e-05
                               0               0                0               0   1.14900707e-05  2.47298096e-05       0.96041651    -0.195783717
                               0               0                0               0     -0.039438737     -0.19410973   4.81330967e-06  2.60711543e-05
                               0               0                0               0   4.17488281e-06  2.57777587e-05    -0.0394576901    -0.194066622
2.16                           0               0                0               0      0.958286382    -0.200776166   1.13638201e-05  2.52160989e-05
                               0               0                0               0    1.1855591e-05  2.53759878e-05      0.958278035     -0.20082171
                               0               0                0               0    -0.0415802375    -0.199045013   4.97303778e-06  2.67089877e-05
                               0               0                0               0   4.47452957e-06  2.64880495e-05    -0.0415965169    -0.199002487
2.22                           0               0                0               0      0.956097443    -0.205799926   1.18088969e-05  2.59294995e-05
                               0               0                0               0   1.22224474e-05  2.60182279e-05       0.95609611    -0.205819473
                               0               0                0               0    -0.0437670495    -0.203932072   5.13217989e-06  2.73410491e-05
                               0               0                0               0   4.78307334e-06  2.71925458e-05     -0.043780643    -0.203890243
2.28                           0               0                0               0      0.953864839    -0.210783834    1.2260518e-05  2.66438133e-05
                               0               0                0               0   1.25906517e-05  2.66564422e-05      0.953871872    -0.210776583
                               0               0                0               0    -0.0459980697    -0.208770033   5.29060603e-06  2.79673667e-05
                               0               0                0               0   5.10022635e-06  2.78908531e-05    -0.0460089775    -0.208729011
2.34                           0               0                0               0      0.951589664    -0.215727415   1.27186692e-05  2.73590341e-05
                               0               0                0               0   1.29602167e-05  2.72905394e-05      0.951606457    -0.215692652
                               0               0                0               0     -0.048272183    -0.213558058   5.44818557e-06  2.85879695e-05
                               0               0                0               0   5.42567816e-06  2.85825815e-05    -0.0482804167    -0.213517947
2.4                            0               0                0               0      0.949273021    -0.220630226   1.31833338e-05  2.80751557e-05
                               0               0                0               0   1.33311564e-05  2.79204245e-05      0.949301006    -0.220567324
                               0               0                0               0    -0.0505882633    -0.218295341   5.60478724e-06  2.92028867e-05
                               0               0                0               0   5.75909557e-06  2.92673478e-05    -0.0505938461    -0.218256243
2.46                           0               0                0               0      0.946916018    -0.225491858   1.36544919e-05  2.87921726e-05
                               0               0                0               0    1.3703486e-05  2.85459989e-05      0.946956662    -0.225400281
                               0               0                0               0    -0.0529451751    -0.222981111   5.76027901e-06  2.98121481e-05
                               0               0                0               0   6.10012255e-06  2.99447754e-05    -0.0529481409    -0.222943119
2.52                           0               0                0               0      0.944519766    -0.230311935   1.41321202e-05  2.95100793e-05
                               0               0                0               0   1.40772219e-05  2.91671598e-05      0.944574566    -0.230191235
                               0               0                0               0    -0.0553417749     -0.22761463   5.91452807e-06  3.04157839e-05
                               0               0                0               0   6.44838026e-06  3.06144964e-05    -0.0553421679    -0.227577833
2.58                           0               0                0               0      0.942085382    -0.235090115   1.46161921e-05   3.0228871e-05
                               0               0                0               0   1.44523821e-05  2.97838004e-05       0.94215586    -0.234939936
                               0               0                0               0     -0.057776912    -0.232195191   6.06740075e-06   3.1013825e-05
                               0               0                0               0   6.80346708e-06  3.12761522e-05    -0.0577747864    -0.232159673
2.64                           0               0                0               0      0.939613982    -0.239826086    1.5106677e-05  3.09485427e-05
                               0               0                0               0   1.48289859e-05  3.03958096e-05      0.939701682    -0.239646164
                               0               0                0               0    -0.0602494302    -0.236722124   6.21876248e-06  3.16063024e-05
                               0               0                0               0   7.16495876e-06  3.19293949e-05    -0.0602448495    -0.236687961
2.7                            0               0                0               0      0.937106686    -0.244519572   1.56035406e-05    3.166909e-05
                               0               0                0               0   1.52070545e-05  3.10030722e-05      0.937213172    -0.244309733
                               0               0                0               0    -0.0627581689    -0.241194788   6.36847774e-06  3.21932479e-05
                               0               0                0               0   7.53240865e-06   3.2573888e-05    -0.0627512054     -0.24116205
2.76                           0               0                0               0      0.934564615    -0.249170329    1.6106744e-05  3.23905084e-05
                               0               0                0               0   1.55866108e-05  3.16054684e-05      0.934691461    -0.248930492
                               0               0                0               0    -0.0653019638    -0.245612578   6.51640993e-06  3.27746936e-05
                               0               0                0               0   7.90534789e-06  3.32093081e-05    -0.0652926985    -0.245581329
2.82                           0               0                0               0      0.931988888    -0.253778144   1.66162438e-05  3.31127936e-05
                               0               0                0               0   1.59676795e-05  3.22028737e-05      0.932137679    -0.253508319
                               0               0                0               0    -0.0678796487    -0.249974919   6.66242141e-06  3.33506721e-05
                               0               0                0               0    8.2832858e-06  3.38353456e-05    -0.0678681704    -0.249945215
2.88                           0               0                0               0      0.929380623    -0.258342838   1.71319918e-05  3.38359413e-05