! TOUCHSTONE file generated by CST MICROWAVE STUDIO
! Date and time: Wed Apr 16 11:32:53 2025
! Project name: LOSSLESS_rogers4003c_air_gapped_wideband_balanced.cst
! Parameters = {h=4; lambda=10; period=5; phi=0; theta=0; thickness=0.508; w_mesh_1=2; w_mesh_2=2; w_patch_1=1.6; w_patch_2=1.6}
! Header version: 2018
! Port assignment regex: !\s*Touchstone port\s*([0-9]+)\s*=\s*(CST MWS port|CST DS port)\s*([0-9]+|Zmin|Zmax)\s*\(\"(.*)\"\)(\s*mode\s*([0-9]+))?.*
! Touchstone port assignment:
! Touchstone port 1 = CST MWS port Zmin ("") mode 1
! Touchstone port 2 = CST MWS port Zmin ("") mode 2
! Touchstone port 3 = CST MWS port Zmax ("") mode 1
! Touchstone port 4 = CST MWS port Zmax ("") mode 2
! S-Parameters are not renormalized. Unphysical impedance of 50 will be written to the file.
# GHz S RI R 50
0                              0               0                0               0                1  1.47647348e-05  -1.16570334e-06 -4.85946589e-07
                               0               0                0               0  -1.14064933e-06 -6.13265179e-07                1   1.5004454e-05
                               0               0                0               0   0.000107385543  -4.8234265e-06   2.37493629e-07 -8.31536602e-08
                               0               0                0               0   9.25058167e-08 -6.79198019e-07   0.000112629177  2.56960052e-06
0.06                           0               0                0               0      0.999970747  -0.00603452222  -5.76868607e-07 -1.00684018e-05
                               0               0                0               0  -5.69254315e-07 -1.01200088e-05      0.999968194  -0.00603202568
                               0               0                0               0   4.83783693e-06  -0.00604733792  -4.49027266e-08 -9.92461019e-06
                               0               0                0               0  -1.07384967e-07 -1.01565712e-05    6.9017714e-06  -0.00604218077
0.1                            0               0                0               0      0.999898563   -0.0100658231  -3.32347325e-07 -1.64861577e-05
                               0               0                0               0  -3.32205594e-07 -1.64886426e-05      0.999898637   -0.0100619424
                               0               0                0               0  -0.000100950563   -0.0100738919  -3.73784656e-07 -1.64851582e-05
                               0               0                0               0  -3.73793965e-07 -1.64876432e-05  -0.000100952759   -0.0100700485
0.12                           0               0                0               0      0.999850442   -0.0120808341   -2.5480159e-07  -1.9702681e-05
                               0               0                0               0  -2.57179405e-07 -1.96810679e-05      0.999851777   -0.0120762941
                               0               0                0               0  -0.000165084288   -0.0120864215  -5.80531378e-07 -1.97643373e-05
                               0               0                0               0  -5.47235236e-07 -1.96560912e-05  -0.000166102779   -0.0120831828
0.18                           0               0                0               0      0.999658013   -0.0181226197  -2.02044194e-07 -2.93780103e-05
                               0               0                0               0  -2.07245274e-07 -2.92861765e-05      0.999662921   -0.0181162208
                               0               0                0               0  -0.000402474915   -0.0181201754  -1.37034963e-06 -2.95935982e-05
                               0               0                0               0  -1.22955151e-06 -2.91692837e-05  -0.000406472665   -0.0181185458
0.24                           0               0                0               0      0.999393605    -0.024158329  -4.20540086e-07 -3.90834551e-05
                               0               0                0               0  -4.21714742e-07 -3.89248826e-05      0.999401782   -0.0241502281
                               0               0                0               0   -0.00070737154   -0.0241466959  -2.41493232e-06 -3.94035905e-05
                               0               0                0               0  -2.15646347e-06 -3.86875024e-05  -0.000714239886   -0.0241463744
0.3                            0               0                0               0      0.999057417   -0.0301864143  -9.11622263e-07 -4.88079614e-05
                               0               0                0               0  -9.02277942e-07 -4.85865858e-05      0.999068574   -0.0301767427
                               0               0                0               0   -0.00107975495   -0.0301640766  -3.71446766e-06 -4.91854678e-05
                               0               0                0               0  -3.32971152e-06 -4.82019499e-05   -0.00108938014   -0.0301647708
0.36                           0               0                0               0      0.998649705   -0.0362053333  -1.67600402e-06  -5.8540398e-05
                               0               0                0               0   -1.6500405e-06 -5.82605762e-05      0.998663562   -0.0361941984
                               0               0                0               0   -0.00151954921   -0.0361704106  -5.26875466e-06 -5.89303612e-05
                               0               0                0               0  -4.75063575e-06 -5.77037007e-05   -0.00153181281   -0.0361718367
0.42                           0               0                0               0      0.998170775   -0.0422135512  -2.71377343e-06 -6.82695997e-05
                               0               0                0               0   -2.6655149e-06  -6.7936074e-05      0.998187068   -0.0422010381
                               0               0                0               0   -0.00202662176   -0.0421637924  -7.07720197e-06 -6.86294017e-05
                               0               0                0               0  -6.42016652e-06 -6.71837241e-05   -0.00204140109   -0.0421656757
0.48                           0               0                0               0      0.997620988    -0.048209543  -4.02439139e-06 -7.79844105e-05
                               0               0                0               0  -3.94861503e-06 -7.76022707e-05      0.997639467   -0.0481957161
                               0               0                0               0   -0.00260078362   -0.0481423209  -9.13882825e-06 -7.82737415e-05
                               0               0                0               0  -8.33881666e-06 -7.66329083e-05   -0.00261795219   -0.0481443956
0.54                           0               0                0               0       0.99700076   -0.0541917958  -5.60669327e-06 -8.76737275e-05
                               0               0                0               0  -5.49865419e-06 -8.72483698e-05      0.997021189   -0.0541767006
                               0               0                0               0   -0.00324178971   -0.0541041008   -1.1452264e-05 -8.78545767e-05
                               0               0                0               0  -1.05066754e-05 -8.60420854e-05   -0.00326121764   -0.0541061106
0.6                            0               0                0               0      0.996310556    -0.060158811  -7.45889414e-06 -9.73265436e-05
                               0               0                0               0  -7.31434631e-06 -9.68636279e-05      0.996332716   -0.0601424759
                               0               0                0               0   -0.00394933928   -0.0600472454  -1.40157552e-05 -9.73631684e-05
                               0               0                0               0  -1.29234043e-05 -9.54020567e-05   -0.00397089374   -0.0600489431
0.66                           0               0                0               0      0.995550896   -0.0661091069  -9.57859759e-06 -0.000106931991
                               0               0                0               0  -9.39381063e-06 -0.000106437396      0.995574582   -0.0660915444
                               0               0                0               0   -0.00472307641   -0.0659698784  -1.68271676e-05 -0.000106790865
                               0               0                0               0  -1.55882344e-05 -0.000104703618    -0.0047466221   -0.0659710264
0.72                           0               0                0               0       0.99472235   -0.0720412205  -1.19628079e-05 -0.000116479381
                               0               0                0               0  -1.17345797e-05  -0.00011595916      0.994747373   -0.0720224291
                               0               0                0               0    -0.0055625907   -0.0718701364  -1.98839939e-05 -0.000116129121
                               0               0                0               0   -1.8499966e-05 -0.000113937586   -0.00558799025   -0.0718705065
0.78                           0               0                0               0      0.993825539   -0.0779537097  -1.46079457e-05 -0.000125958248
                               0               0                0               0  -1.43336104e-05 -0.000125418579      0.993851726   -0.0779336752
                               0               0                0               0   -0.00646741795   -0.0777461705  -2.31833609e-05 -0.000125369523
                               0               0                0               0  -2.16569702e-05 -0.000123094824   -0.00649453241    -0.077745544
0.84                           0               0                0               0      0.992861134   -0.0838451559  -1.75098667e-05 -0.000135358382
                               0               0                0               0  -1.71872988e-05 -0.000134805528      0.992888327   -0.0838238529
                               0               0                0               0   -0.00743704103   -0.0835961487  -2.67220386e-05 -0.000134503802
                               0               0                0               0  -2.50571918e-05 -0.000132166267   -0.00746573029   -0.0835943167
0.9                            0               0                0               0      0.991829853   -0.0897141653  -2.06638833e-05 -0.000144669874
                               0               0                0               0   -2.0291497e-05 -0.000144110127      0.991857909   -0.0896915588
                               0               0                0               0    -0.0084708908    -0.089418258  -3.04964512e-05 -0.000143523857
                               0               0                0               0  -2.86981546e-05 -0.000141142949   -0.00850101404   -0.0894150208
0.96                           0               0                0               0      0.990732462   -0.0955593714  -2.40647893e-05 -0.000153883141
                               0               0                0               0  -2.36415336e-05 -0.000153322786      0.990761255    -0.095535418
                               0               0                0               0   -0.00956834716   -0.0952107058  -3.45026882e-05 -0.000152421776
                               0               0                0               0  -3.25769686e-05 -0.000150016028    -0.0095997633   -0.0952058737
1.02                           0               0                0               0      0.989569774    -0.101379437  -2.77068867e-05 -0.000162988967
                               0               0                0               0  -2.72322368e-05 -0.000162434229      0.989599192    -0.101354086
                               0               0                0               0    -0.0107287401    -0.100971723  -3.87365177e-05 -0.000161189847
                               0               0                0               0  -3.66903386e-05 -0.000158776808    -0.0107613082    -0.100965115
1.08                           0               0                0               0      0.988342645    -0.107173056  -3.15840153e-05 -0.000171978527
                               0               0                0               0  -3.10579594e-05 -0.000171435535      0.988372592    -0.107146251
                               0               0                0               0    -0.0119513511    -0.106699563     -4.31934e-05 -0.000169820577
                               0               0                0               0  -4.10345752e-05 -0.000167416764    -0.0119849309    -0.106691009
1.14                           0               0                0               0      0.987051976    -0.112938954  -3.56895838e-05 -0.000180843416
                               0               0                0               0  -3.51126065e-05 -0.000180318156      0.987082369    -0.112910634
                               0               0                0               0     -0.013235414    -0.112392508  -4.78685028e-05 -0.000178306711
                               0               0                0               0  -4.56056069e-05 -0.000175927568    -0.0132698661    -0.112381846
1.2                            0               0                0               0       0.98569871    -0.118675892  -4.00166027e-05 -0.000189575674
                               0               0                0               0  -3.93896649e-05 -0.000189073952      0.985729481    -0.118645993
                               0               0                0               0    -0.0145801168    -0.118048866   -5.2756717e-05  -0.00018664124
                               0               0                0               0  -5.03989941e-05 -0.000184301106    -0.0146153035    -0.118035944
1.26                           0               0                0               0      0.984283828    -0.124382668  -4.45577188e-05 -0.000198167806
                               0               0                0               0  -4.38822346e-05 -0.000197695212      0.984314924    -0.124351122
                               0               0                0               0     -0.015984603    -0.123666976  -5.78526733e-05 -0.000194817418
                               0               0                0               0  -5.54099449e-05 -0.000192529501    -0.0160203883     -0.12365165
1.32                           0               0                0               0      0.982808355    -0.130058116  -4.93052509e-05 -0.000206612798
                               0               0                0               0  -4.85830609e-05 -0.000206174671      0.982839732    -0.130024855
                               0               0                0               0    -0.0174479729    -0.129245207  -6.31507595e-05 -0.000202828772
                               0               0                0               0  -6.06333313e-05 -0.000200605136    -0.0174842229    -0.129227343
1.38                           0               0                0               0      0.981273347    -0.135701109  -5.42512253e-05 -0.000214904137
                               0               0                0               0  -5.34845682e-05 -0.000214505533      0.981304978    -0.135666064
                               0               0                0               0    -0.0189692852    -0.134781961  -6.86451385e-05 -0.000210669112
                               0               0                0               0  -6.60637083e-05 -0.000208520663    -0.0190058688    -0.134761433
1.44                           0               0                0               0      0.979679899    -0.141310562  -5.93874135e-05 -0.000223035817
                               0               0                0               0  -5.85788947e-05 -0.000222681484      0.979711768    -0.141273664
                               0               0                0               0    -0.0205475589    -0.140275673  -7.43297667e-05 -0.000218332543
                               0               0                0               0  -7.16953327e-05 -0.000216269029     -0.020584348    -0.140252364
1.5                            0               0                0               0      0.978029141    -0.146885432  -6.47053682e-05 -0.000231002351
                               0               0                0               0  -6.38579275e-05 -0.000230696704      0.978061241    -0.146846612
                               0               0                0               0    -0.0221817746    -0.145724813  -8.01984128e-05 -0.000225813468
                               0               0                0               0  -7.75221833e-05 -0.000223843486    -0.0222186445    -0.145698616
1.56                           0               0                0               0      0.976322231    -0.152424716  -7.01964607e-05 -0.000238798777
                               0               0                0               0  -6.93133374e-05 -0.000238545875      0.976354567    -0.152383909
                               0               0                0               0    -0.0238708766    -0.151127888  -8.62446768e-05 -0.000233106598
                               0               0                0               0   -8.3537983e-05 -0.000231237605    -0.0239077062    -0.151098702
1.62                           0               0                0               0       0.97456036    -0.157927458  -7.58519169e-05  -0.00024642066
                               0               0                0               0  -7.49366149e-05 -0.000246224189      0.974592949      -0.1578846
                               0               0                0               0    -0.0256137743    -0.156483442  -9.24620092e-05 -0.000240206953
                               0               0                0               0  -8.97362197e-05 -0.000238445289    -0.0256504466    -0.156451176
1.68                           0               0                0               0      0.972744747    -0.163392746  -8.16628534e-05 -0.000253864089
                               0               0                0               0  -8.07191047e-05 -0.000253727351      0.972777612    -0.163347777
                               0               0                0               0    -0.0274093442    -0.161790057  -9.88437304e-05 -0.000247109872
                               0               0                0               0  -9.61101699e-05  -0.00024546078    -0.0274457466    -0.161754626
1.74                           0               0                0               0      0.970876635    -0.168819715  -8.76203121e-05 -0.000261125681
                               0               0                0               0  -8.66520407e-05 -0.000261051578      0.970909811    -0.168772576
                               0               0                0               0    -0.0292564318    -0.167046354  -0.000105383049 -0.000253811008
                               0               0                0               0  -0.000102652921 -0.000252278671    -0.0292924563    -0.167007681
1.8                            0               0                0               0      0.968957296    -0.174207545  -9.37152944e-05 -0.000268202569
                               0               0                0               0  -9.27265795e-05 -0.000268193601      0.968990823    -0.174158184
                               0               0                0               0    -0.0311538532    -0.172250994  -0.000112073084 -0.000260306334
                               0               0                0               0  -0.000109357395 -0.000258893911    -0.0311893967     -0.17220901
1.86                           0               0                0               0      0.966988019    -0.179555464  -9.99387938e-05 -0.000275092396
                               0               0                0               0  -9.89338334e-05 -0.000275150656      0.967021946    -0.179503832
                               0               0                0               0    -0.0331003972    -0.177402677  -0.000118906877  -0.00026659214
                               0               0                0               0  -0.000116216371 -0.000265301806    -0.0331353619    -0.177357321
1.92                           0               0                0               0      0.964970117    -0.184862749  -0.000106281826 -0.000281793309
                               0               0                0               0  -0.000105264902  -0.00028192048      0.965004501    -0.184808802
                               0               0                0               0    -0.0350948269    -0.182500148  -0.000125877419 -0.000272665034
                               0               0                0               0  -0.000123222512  -0.00027149803    -0.0351291206    -0.182451363
1.98                           0               0                0               0      0.962904922    -0.190128726  -0.000112735462 -0.000288303943
                               0               0                0               0  -0.000111710903 -0.000288501302      0.962939823    -0.190072425
                               0               0                0               0    -0.0371358822    -0.187542188  -0.000132977663 -0.000278521935
                               0               0                0               0  -0.000130368383 -0.000277478617    -0.0371694181    -0.187489926
2.04                           0               0                0               0       0.96079378     -0.19535277  -0.000119290849 -0.000294623407
                               0               0                0               0  -0.000118263002  -0.00029489183      0.960829265     -0.19529408
                               0               0                0               0    -0.0392222809    -0.192527625  -0.000140200541 -0.000284160074
                               0               0                0               0  -0.000137646476 -0.000283239968    -0.0392549784    -0.192471844
2.1                            0               0                0               0      0.958638054    -0.200534303  -0.000125939245 -0.000300751273
                               0               0                0               0  -0.000124912436 -0.000301091244      0.958674194    -0.200473196
                               0               0                0               0    -0.0413527212    -0.197455327  -0.000147538985 -0.000289576986
                               0               0                0               0  -0.000145049237 -0.000288778844    -0.0413845059    -0.197395989
2.16                           0               0                0               0      0.956439118    -0.205672799  -0.000132672037 -0.000306687555
                               0               0                0               0  -0.000131650545 -0.000307099175      0.956475989    -0.205609253
                               0               0                0               0    -0.0435258833    -0.202324203  -0.000154985941 -0.000294770505
                               0               0                0               0  -0.000152569082 -0.000294092364    -0.0435566869    -0.202261278
2.22                           0               0                0               0      0.954198358    -0.210767784  -0.000139480765 -0.000312432692
                               0               0                0               0  -0.000138468793 -0.000312915692      0.954236038     -0.21070178
                               0               0                0               0    -0.0457404315    -0.207133207  -0.000162534385 -0.000299738758
                               0               0                0               0  -0.000160198419 -0.000299178003    -0.0457701922     -0.20706667
2.28                           0               0                0               0       0.95191717    -0.215818829  -0.000146357144 -0.000317987533
                               0               0                0               0   -0.00014535879 -0.000318541288      0.951955741    -0.215750356
                               0               0                0               0    -0.0479950155    -0.211881335  -0.000170177337 -0.000304480156
                               0               0                0               0  -0.000167929674  -0.00030403358    -0.0480236785    -0.211811164
2.34                           0               0                0               0      0.949596953     -0.22082556   -0.00015329308 -0.000323353312
                               0               0                0               0  -0.000152312311 -0.000323976859      0.949636499    -0.220754612
                               0               0                0               0    -0.0502882732    -0.216567624  -0.000177907877 -0.000308993386
                               0               0                0               0  -0.000175755306 -0.000308657253    -0.0503157901    -0.216493805
2.4                            0               0                0               0      0.947239116     -0.22578765  -0.000160280688 -0.000328531631
                               0               0                0               0  -0.000159321319 -0.000329223685      0.947279722    -0.225714226
                               0               0                0               0    -0.0526188315    -0.221191154  -0.000185719157 -0.000313277402
                               0               0                0               0  -0.000183667825 -0.000313047511    -0.0526451611    -0.221113676
2.46                           0               0                0               0      0.944845069    -0.230704823  -0.000167312307 -0.000333524439
                               0               0                0               0  -0.000166377978 -0.000334283413       0.94488682    -0.230628928
                               0               0                0               0    -0.0549853088    -0.225751048  -0.000193604414 -0.000317331414
                               0               0                0               0  -0.000191659816 -0.000317203162    -0.0550104168    -0.225669904
2.52                           0               0                0               0      0.942416224    -0.235576853   -0.00017438051 -0.000338334011
                               0               0                0               0  -0.000173474669 -0.000339158036      0.942459207    -0.235498497
                               0               0                0               0    -0.0573863165    -0.230246469  -0.000201556982  -0.00032115488
                               0               0                0               0  -0.000199723949 -0.000321123325    -0.0574101757    -0.230161656
2.58                           0               0                0               0      0.939953991    -0.240403562  -0.000181478117 -0.000342962925
                               0               0                0               0  -0.000180604002 -0.000343849872      0.939998294    -0.240322762
                               0               0                0               0    -0.0598204605    -0.234676623  -0.000209570302 -0.000324747493
                               0               0                0               0     -0.000207853 -0.000324807412    -0.0598430509    -0.234588142
2.64                           0               0                0               0      0.937459782    -0.245184823  -0.000188598207 -0.000347414046
                               0               0                0               0  -0.000187758829 -0.000348361546      0.937505491    -0.245101599
                               0               0                0               0    -0.0622863432    -0.239040754  -0.000217637934 -0.000328109171
                               0               0                0               0  -0.000216039864 -0.000328255121    -0.0623076522     -0.23894861
2.7                            0               0                0               0      0.934935001    -0.249920556  -0.000195734119 -0.000351690499
                               0               0                0               0  -0.000194932254 -0.000352695968      0.934982202    -0.249834934
                               0               0                0               0     -0.064782565     -0.24333815  -0.000225753563 -0.000331240044
                               0               0                0               0  -0.000224277566 -0.000331466421    -0.0648025871     -0.24324235
2.76                           0               0                0               0      0.932381051    -0.254610731   -0.00020287946 -0.000355795654
                               0               0                0               0  -0.000202117636 -0.000356856311      0.932429827    -0.254522741
                               0               0                0               0    -0.0673077259    -0.247568134  -0.000233911009 -0.000334140443
                               0               0                0               0  -0.000232559278 -0.000334441536    -0.0673264631    -0.247468689
2.82                           0               0                0               0      0.929799325    -0.259255365  -0.000210028115 -0.000359733103
                               0               0                0               0  -0.000209308602 -0.000360845998      0.929849759    -0.259165041
                               0               0                0               0    -0.0698604268    -0.251730071  -0.000242104233 -0.000336810887
                               0               0                0               0  -0.000240878327 -0.000337180932    -0.0698778884    -0.251626995
2.88                           0               0                0               0      0.927191209    -0.263854521  -0.000217174242 -0.000363506642