! TOUCHSTONE file generated by CST MICROWAVE STUDIO
! Date and time: Wed Apr 16 11:32:52 2025
! Project name: LOSSLESS_rogers4003c_air_gapped_wideband_balanced.cst
! Parameters = {h=3.5; lambda=10; period=5; phi=0; theta=0; thickness=0.508; w_mesh_1=2; w_mesh_2=2; w_patch_1=1.6; w_patch_2=1.6}
! Header version: 2018
! Port assignment regex: !\s*Touchstone port\s*([0-9]+)\s*=\s*(CST MWS port|CST DS port)\s*([0-9]+|Zmin|Zmax)\s*\(\"(.*)\"\)(\s*mode\s*([0-9]+))?.*
! Touchstone port assignment:
! Touchstone port 1 = CST MWS port Zmin ("") mode 1
! Touchstone port 2 = CST MWS port Zmin ("") mode 2
! Touchstone port 3 = CST MWS port Zmax ("") mode 1
! Touchstone port 4 = CST MWS port Zmax ("") mode 2
! S-Parameters are not renormalized. Unphysical impedance of 50 will be written to the file.
# GHz S RI R 50
0                              0               0                0               0                1 -2.25571559e-07   4.23258278e-07  4.73171402e-07
                               0               0                0               0   4.68494483e-07  3.24227743e-07                1  2.20043369e-06
                               0               0                0               0     2.449302e-05 -1.43003883e-06  -3.88730307e-07  1.84377912e-07
                               0               0                0               0  -3.97872057e-07  2.07959067e-07   2.57064103e-05 -1.14994817e-06
0.06                           0               0                0               0      0.999966904  -0.00582982944   1.99764818e-07  2.90662297e-06
                               0               0                0               0   2.15534291e-07  2.84791266e-06      0.999968267  -0.00582692272
                               0               0                0               0  -2.46972683e-05  -0.00583504452  -1.07783584e-07  2.80225342e-06
                               0               0                0               0  -1.11093987e-07  2.81090277e-06  -2.42105704e-05  -0.00583290261
0.1                            0               0                0               0       0.99990552  -0.00971551883   8.81838763e-08  4.54637924e-06
                               0               0                0               0   8.81537428e-08  4.54557202e-06      0.999905587  -0.00971214993
                               0               0                0               0  -9.42501955e-05  -0.00972311162   1.11060921e-07  4.54603333e-06
                               0               0                0               0   1.11035147e-07   4.5452261e-06  -9.41893342e-05  -0.00971971025
0.12                           0               0                0               0      0.999863531   -0.0116579913   4.38415576e-08  5.37118271e-06
                               0               0                0               0   3.70240448e-08  5.39859617e-06      0.999862991   -0.0116543517
                               0               0                0               0  -0.000140058429   -0.0116666545   2.30009185e-07  5.41732413e-06
                               0               0                0               0   2.31451959e-07  5.41194183e-06  -0.000140193029   -0.0116626184
0.18                           0               0                0               0       0.99969241   -0.0174832876  -4.25490272e-08  7.86399628e-06
                               0               0                0               0  -6.54586345e-08  7.97293932e-06      0.999690213   -0.0174786885
                               0               0                0               0  -0.000321610088   -0.0174945682   6.25193665e-07  8.02815625e-06
                               0               0                0               0   6.30376084e-07  8.00967587e-06   -0.00032226181     -0.01748861
0.24                           0               0                0               0      0.999453644   -0.0233042974  -5.76049694e-08  1.03820545e-05
                               0               0                0               0  -9.05415526e-08   1.0567485e-05      0.999450029   -0.0232985366
                               0               0                0               0  -0.000569324111   -0.0233170929    1.0782775e-06   1.0633282e-05
                               0               0                0               0   1.08625243e-06   1.0602667e-05  -0.000570390156   -0.0233091889
0.3                            0               0                0               0      0.999147381   -0.0291196044   3.00841064e-10  1.29222043e-05
                               0               0                0               0  -3.70686058e-08  1.31786735e-05      0.999142582   -0.0291125026
                               0               0                0               0  -0.000883124681   -0.0291325369   1.58972841e-06  1.32312007e-05
                               0               0                0               0   1.59961664e-06  1.31894406e-05  -0.000884503774   -0.0291226678
0.36                           0               0                0               0      0.998773817   -0.0349277986   1.32607146e-07  1.54811606e-05
                               0               0                0               0   9.58910105e-08  1.58028597e-05      0.998768059   -0.0349191982
                               0               0                0               0   -0.00126288845   -0.0349392111   2.15997227e-06  1.58203799e-05
                               0               0                0               0   2.17096389e-06  1.57684866e-05   -0.00126448098   -0.0349273617
0.42                           0               0                0               0      0.998333193   -0.0407274782   3.40551828e-07  1.80555208e-05
                               0               0                0               0   3.09035175e-07  1.84363305e-05      0.998326695   -0.0407172419
                               0               0                0               0   -0.00170844476   -0.0407354311   2.78939131e-06   1.8399257e-05
                               0               0                0               0   2.80074675e-06  1.83382608e-05   -0.00171015294     -0.04072159
0.48                           0               0                0               0      0.997825795   -0.0465172512   6.25160612e-07  2.06417791e-05
                               0               0                0               0   6.02822909e-07  2.10753238e-05      0.997818769   -0.0465052609
                               0               0                0               0   -0.00221957598   -0.0465195182    3.4783222e-06  2.09662401e-05
                               0               0                0               0   3.48937316e-06  2.08971858e-05   -0.00222130395   -0.0465036782
0.54                           0               0                0               0      0.997251957   -0.0522957374   9.87237126e-07  2.32363435e-05
                               0               0                0               0   9.77470225e-07  2.37160472e-05      0.997244605   -0.0522818929
                               0               0                0               0   -0.00279601789   -0.0522898021   4.22705437e-06  2.35197104e-05
                               0               0                0               0   4.23720437e-06  2.34436528e-05   -0.00279767186   -0.0522719598
0.6                            0               0                0               0      0.996612055   -0.0580615698   1.42735448e-06  2.58355528e-05
                               0               0                0               0   1.43294783e-06  2.63546979e-05      0.996604571   -0.0580457875
                               0               0                0               0   -0.00343746014   -0.0580446217   5.03582823e-06   2.6058023e-05
                               0               0                0               0   5.04455299e-06   2.5976023e-05   -0.00343894851   -0.0580247775
0.66                           0               0                0               0      0.995906509   -0.0638133965   1.94584847e-06  2.84356955e-05
                               0               0                0               0   1.96898069e-06  2.89874824e-05      0.995899078   -0.0637956084
                               0               0                0               0   -0.00414354679   -0.0637823276   5.90483351e-06  2.85795094e-05
                               0               0                0               0     5.911681e-06  2.84926297e-05   -0.00414478028   -0.0637604852
0.72                           0               0                0               0      0.995135783   -0.0695498821   2.54281257e-06  3.10330281e-05
                               0               0                0               0   2.58504955e-06   3.1610636e-05      0.995128583   -0.0695300349
                               0               0                0               0   -0.00491387697    -0.069501283   6.83420768e-06  3.10824788e-05
                               0               0                0               0   6.83879796e-06  3.09917798e-05   -0.00491476868   -0.0694774499
0.78                           0               0                0               0      0.994300384   -0.0752697098   3.21809476e-06  3.36237956e-05
                               0               0                0               0   3.28039423e-06  3.42204423e-05      0.994293581   -0.0752477634
                               0               0                0               0   -0.00574800552   -0.0751998657   7.82403442e-06  3.35652207e-05
                               0               0                0               0   7.82605912e-06   3.3471756e-05   -0.00574847109   -0.0751740526
0.84                           0               0                0               0      0.993400859   -0.0809715824   3.97129622e-06  3.62042509e-05
                               0               0                0               0   4.05401888e-06  3.68132524e-05      0.993394613    -0.080947509
                               0               0                0               0   -0.00664544379   -0.0808764696   8.87434221e-06  3.60260066e-05
                               0               0                0               0   8.87356378e-06  3.59308187e-05   -0.00664540144   -0.0808486904
0.9                            0               0                0               0      0.992437797    -0.086654224   4.80177206e-06  3.87706753e-05
                               0               0                0               0   4.90469894e-06  3.93855031e-05      0.992432258   -0.0866280074
                               0               0                0               0   -0.00760566043   -0.0865295063   9.98510297e-06  3.84630925e-05
                               0               0                0               0   9.98135362e-06  3.83672088e-05    -0.0076050311   -0.0864997781
0.96                           0               0                0               0      0.991411826   -0.0923163818   5.70863397e-06  4.13193981e-05
                               0               0                0               0   5.83098973e-06  4.19337343e-05      0.991407134   -0.0922880159
                               0               0                0               0   -0.00862808235   -0.0921574063   1.11562309e-05  4.08747212e-05
                               0               0                0               0   1.11494112e-05  4.07791495e-05   -0.00862678971    -0.092125749
1.02                           0               0                0               0      0.990323614   -0.0979568269   6.69075474e-06  4.38468167e-05
                               0               0                0               0   6.83123674e-06  4.44546055e-05      0.990319901   -0.0979263155
                               0               0                0               0   -0.00971209559   -0.0977586208   1.23875811e-05  4.32591245e-05
                               0               0                0               0   1.23776586e-05  4.31648492e-05   -0.00971006618   -0.0977250572
1.08                           0               0                0               0      0.989173866    -0.103574356   7.74677483e-06  4.63494154e-05
                               0               0                0               0   7.90358717e-06  4.69449113e-05      0.989171254    -0.103541712
                               0               0                0               0    -0.0108570464    -0.103331623   1.36789491e-05  4.56145259e-05
                               0               0                0               0   1.36659559e-05  4.55225039e-05    -0.0108542097    -0.103296178
1.14                           0               0                0               0      0.987963323    -0.109167794   8.87511054e-06  4.88237838e-05
                               0               0                0               0   9.04600289e-06  4.94015952e-05      0.987961927    -0.109133036
                               0               0                0               0    -0.0120622423    -0.108874908   1.50300694e-05  4.79391435e-05
                               0               0                0               0   1.50141004e-05  4.78503001e-05    -0.0120585306    -0.108837611
1.2                            0               0                0               0      0.986692763    -0.114735993   1.00739641e-05  5.12666346e-05
                               0               0                0               0   1.02562744e-05  5.18217622e-05      0.986692686    -0.114699148
                               0               0                0               0    -0.0133269532    -0.114386998    1.6440615e-05  5.02311921e-05
                               0               0                0               0   1.64218254e-05  5.01464176e-05    -0.0133223019    -0.114347878
1.26                           0               0                0               0      0.985362996    -0.120277833   1.13413352e-05  5.36748193e-05
                               0               0                0               0   1.15320358e-05  5.42026898e-05      0.985364336    -0.120238935
                               0               0                0               0    -0.0146504124    -0.119866439   1.79101969e-05  5.24888865e-05
                               0               0                0               0   1.78887991e-05  5.24090323e-05    -0.0146447601    -0.119825529
1.32                           0               0                0               0      0.983974866    -0.125792227    1.2675034e-05  5.60453437e-05
                               0               0                0               0   1.28707805e-05  5.65418377e-05      0.983977711    -0.125751315
                               0               0                0               0    -0.0160318183    -0.125311803   1.94383635e-05  5.47104442e-05
                               0               0                0               0   1.94146244e-05  5.46363196e-05    -0.0160251064    -0.125269137
1.38                           0               0                0               0       0.98252925    -0.131278119   1.40726955e-05  5.83753811e-05
                               0               0                0               0   1.42698773e-05  5.88368551e-05       0.98253368    -0.131235236
                               0               0                0               0    -0.0174703351    -0.130721691   2.10246002e-05  5.68940879e-05
                               0               0                0               0    2.0998838e-05  5.68264569e-05    -0.0174625082    -0.130677307
1.44                           0               0                0               0      0.981027053    -0.136734485   1.55317948e-05  6.06622846e-05
                               0               0                0               0   1.57265871e-05  6.10855876e-05      0.981033141     -0.13668968
                               0               0                0               0    -0.0189650944    -0.136094734   2.26683297e-05  5.90380491e-05
                               0               0                0               0     2.264091e-05  5.89776273e-05    -0.0189561002     -0.13604867
1.5                            0               0                0               0      0.979469212    -0.142160336   1.70496632e-05  6.29035971e-05
                               0               0                0               0   1.72380798e-05  6.32860811e-05      0.979477022    -0.142113659
                               0               0                0               0    -0.0205151963    -0.141429592   2.43689113e-05  6.11405706e-05
                               0               0                0               0    2.4340244e-05  6.10880225e-05    -0.0205049858    -0.141381886
1.56                           0               0                0               0      0.977856688    -0.147554716   1.86235057e-05  6.50970603e-05
                               0               0                0               0   1.88014507e-05  6.54365853e-05      0.977866277    -0.147506221
                               0               0                0               0    -0.0221197114    -0.146724953   2.61256419e-05  6.31999096e-05
                               0               0                0               0   2.60961768e-05  6.31558464e-05    -0.0221082385    -0.146675649
1.62                           0               0                0               0      0.976190471    -0.152916705   2.02504179e-05  6.72406213e-05
                               0               0                0               0   2.04137377e-05  6.75355545e-05       0.97620189     -0.15286645
                               0               0                0               0    -0.0237776811    -0.151979541   2.79377558e-05  6.52143408e-05
                               0               0                0               0   2.79079788e-05   6.5179318e-05    -0.0237649031    -0.151928681
1.68                           0               0                0               0      0.974471575    -0.158245419   2.19274038e-05  6.93324379e-05
                               0               0                0               0    2.2071937e-05  6.95816477e-05      0.974484866    -0.158193462
                               0               0                0               0    -0.0254881203    -0.157192109   2.98044254e-05  6.71821594e-05
                               0               0                0               0   2.97748543e-05  6.71566749e-05    -0.0254739973    -0.157139737
1.74                           0               0                0               0      0.972701037     -0.16354001    2.3651394e-05   7.1370882e-05
                               0               0                0               0   2.37730195e-05  7.15737273e-05      0.972716237    -0.163486414
                               0               0                0               0    -0.0272500176    -0.162361445   3.17247623e-05  6.91016842e-05
                               0               0                0               0   3.16959422e-05  6.90861767e-05    -0.0272345131    -0.162307606
1.8                            0               0                0               0      0.970879916    -0.168799671   2.54192631e-05  7.33545409e-05
                               0               0                0               0   2.55139458e-05  7.35108557e-05      0.970897056    -0.168744495
                               0               0                0               0    -0.0290623377    -0.167486368   3.36978174e-05  7.09712602e-05
                               0               0                0               0   3.36703165e-05  7.09661083e-05    -0.0290454181    -0.167431108
1.86                           0               0                0               0      0.969009292    -0.174023628   2.72278473e-05  7.52822178e-05
                               0               0                0               0   2.72916805e-05  7.53922916e-05      0.969028395    -0.173966935
                               0               0                0               0    -0.0309240224    -0.172565734   3.57225827e-05  7.27892622e-05
                               0               0                0               0   3.56969877e-05  7.27947833e-05    -0.0309056572      -0.1725091
1.92                           0               0                0               0      0.967090263    -0.179211149   2.90739614e-05  7.71529302e-05
                               0               0                0               0   2.91032066e-05  7.72174844e-05      0.967111349    -0.179153002
                               0               0                0               0    -0.0328339922    -0.177598431   3.77979924e-05  7.45540972e-05
                               0               0                0               0   3.77749037e-05  7.45705467e-05    -0.0328141539     -0.17754047
1.98                           0               0                0               0      0.965123945     -0.18436154   3.09544149e-05  7.89659064e-05
                               0               0                0               0   3.09455376e-05  7.89860685e-05      0.965147028    -0.184302002
                               0               0                0               0    -0.0347911477    -0.182583382    3.9922924e-05  7.62642076e-05
                               0               0                0               0   3.99029513e-05  7.62917791e-05    -0.0347698119    -0.182524143
2.04                           0               0                0               0      0.963111471    -0.189474145   3.28660283e-05  8.07205814e-05
                               0               0                0               0   3.28157302e-05  8.06978555e-05      0.963136558    -0.189413279
                               0               0                0               0    -0.0367943713    -0.187519547   4.20962005e-05  7.79180737e-05
                               0               0                0               0    4.2079958e-05  7.79568989e-05    -0.0367715164    -0.187459079
2.1                            0               0                0               0      0.961053986    -0.194548351   3.48056474e-05  8.24165913e-05
                               0               0                0               0   3.47108945e-05  8.23528271e-05      0.961081081    -0.194486219
                               0               0                0               0    -0.0388425283     -0.19240592   4.43165917e-05  7.95142168e-05
                               0               0                0               0   4.43046934e-05   7.9564366e-05    -0.0388181356    -0.192344271
2.16                           0               0                0               0      0.958952651    -0.199583581   3.67701576e-05  8.40537665e-05
                               0               0                0               0   3.66282047e-05   8.3951126e-05      0.958981752    -0.199520244
                               0               0                0               0    -0.0409344688    -0.197241531   4.65828163e-05  8.10512017e-05
                               0               0                0               0   4.65758719e-05  8.11126847e-05    -0.0409085224     -0.19717875
2.22                           0               0                0               0      0.956808637    -0.204579301   3.87564963e-05  8.56321236e-05
                               0               0                0               0   3.85649071e-05  8.54930477e-05      0.956839739     -0.20451482
                               0               0                0               0    -0.0430690289    -0.202025444   4.88935442e-05  8.25276389e-05
                               0               0                0               0   4.88921542e-05  8.26004062e-05    -0.0430415158    -0.201961581
2.28                           0               0                0               0      0.954623124    -0.209535016   4.07616653e-05  8.71518573e-05
                               0               0                0               0   4.05183289e-05  8.69790303e-05      0.954656219    -0.209469449
                               0               0                0               0    -0.0452450321    -0.206756762   5.12473987e-05  8.39421877e-05
                               0               0                0               0   5.12521499e-05  8.40261319e-05    -0.0452159419    -0.206691866
2.34                           0               0                0               0      0.952397302    -0.214450271   4.27827408e-05  8.86133307e-05
                               0               0                0               0   4.24858843e-05  8.84096457e-05      0.952432378    -0.214383677
                               0               0                0               0    -0.0474612911    -0.211434621   5.36429588e-05  8.52935578e-05
                               0               0                0               0   5.36544206e-05  8.53885156e-05     -0.047430616    -0.211368741
2.4                            0               0                0               0       0.95013237    -0.219324652   4.48168837e-05  9.00170655e-05
                               0               0                0               0   4.44650805e-05  8.97855894e-05       0.95016941    -0.219257086
                               0               0                0               0    -0.0497166088    -0.216058193    5.6078762e-05  8.65805119e-05
                               0               0                0               0   5.60974819e-05  8.66862664e-05    -0.0496843436    -0.215991378
2.46                           0               0                0               0       0.94782953    -0.224157785   4.68613471e-05  9.13637319e-05
                               0               0                0               0   4.64535229e-05   9.1107671e-05      0.947868515    -0.224089303
                               0               0                0               0    -0.0520097799    -0.220626686   5.85533068e-05  8.78018678e-05
                               0               0                0               0   5.85798067e-05  8.79181505e-05    -0.0519759219    -0.220558984
2.52                           0               0                0               0      0.945489989    -0.228949337   4.89134844e-05  9.26541377e-05
                               0               0                0               0   4.84489184e-05  9.23768039e-05      0.945530898    -0.228879991
                               0               0                0               0    -0.0543395923    -0.225139343   6.10650559e-05  8.89564997e-05
                               0               0                0               0   6.10998285e-05  8.90829939e-05    -0.0543041413    -0.225070803
2.58                           0               0                0               0      0.943114959    -0.233699014   5.09707547e-05  9.38892177e-05
                               0               0                0               0   5.04490789e-05  9.35939964e-05      0.943157767    -0.233628855
                               0               0                0               0    -0.0567048286    -0.229595442   6.36124388e-05  9.00433406e-05
                               0               0                0               0   6.36559441e-05  9.01796839e-05    -0.0566677865    -0.229526111
2.64                           0               0                0               0      0.940705651    -0.238406561   5.30307283e-05  9.50700227e-05
                               0               0                0               0   5.24519233e-05  9.47603416e-05      0.940750333     -0.23833564
                               0               0                0               0    -0.0591042668    -0.233994295   6.61938553e-05  9.10613833e-05
                               0               0                0               0   6.62465173e-05  9.12071714e-05     -0.059065638    -0.233924221
2.7                            0               0                0               0       0.93826328    -0.243071765   5.50910903e-05  9.61977087e-05
                               0               0                0               0   5.44554791e-05  9.58770081e-05      0.938309806    -0.243000128
                               0               0                0               0    -0.0615366825    -0.238335248   6.88076781e-05  9.20096821e-05
                               0               0                0               0   6.88698823e-05  9.21644719e-05    -0.0614964735    -0.238264478
2.76                           0               0                0               0      0.935789057    -0.247694452    5.7149644e-05  9.72735264e-05
                               0               0                0               0   5.64578825e-05  9.69452318e-05      0.935837397    -0.247622143
                               0               0                0               0    -0.0640008495    -0.242617684   7.14522566e-05  9.28873539e-05
                               0               0                0               0   7.15243471e-05  9.30506672e-05    -0.0639590687    -0.242546262
2.82                           0               0                0               0      0.933284192    -0.252274484   5.92043123e-05  9.82988102e-05
                               0               0                0               0   5.84573793e-05  9.79663061e-05      0.933334314    -0.252201548
                               0               0                0               0    -0.0664955412    -0.246841014   7.41259202e-05  9.36935787e-05
                               0               0                0               0   7.42081975e-05  9.38649068e-05    -0.0664521992    -0.246768986
2.88                           0               0                0               0      0.930749892    -0.256811766   6.12531395e-05  9.92749685e-05