! TOUCHSTONE file generated by CST MICROWAVE STUDIO
! Date and time: Wed Apr 16 11:32:54 2025
! Project name: LOSSLESS_rogers4003c_air_gapped_wideband_balanced.cst
! Parameters = {h=4.5; lambda=10; period=5; phi=0; theta=0; thickness=0.508; w_mesh_1=2; w_mesh_2=2; w_patch_1=1.6; w_patch_2=1.6}
! Header version: 2018
! Port assignment regex: !\s*Touchstone port\s*([0-9]+)\s*=\s*(CST MWS port|CST DS port)\s*([0-9]+|Zmin|Zmax)\s*\(\"(.*)\"\)(\s*mode\s*([0-9]+))?.*
! Touchstone port assignment:
! Touchstone port 1 = CST MWS port Zmin ("") mode 1
! Touchstone port 2 = CST MWS port Zmin ("") mode 2
! Touchstone port 3 = CST MWS port Zmax ("") mode 1
! Touchstone port 4 = CST MWS port Zmax ("") mode 2
! S-Parameters are not renormalized. Unphysical impedance of 50 will be written to the file.
# GHz S RI R 50
0                              0               0                0               0                1 -2.01098892e-05  -4.56228278e-07  4.10334834e-07
                               0               0                0               0  -6.06570244e-07  3.47858697e-07                1 -9.49315691e-06
                               0               0                0               0   3.26402225e-05  8.78504081e-07   5.50324629e-07 -5.70227634e-07
                               0               0                0               0   1.07588268e-06 -2.73398383e-07   3.29213284e-05 -1.53566726e-06
0.06                           0               0                0               0      0.999964955  -0.00604215928   -2.3791446e-07 -5.64758443e-06
                               0               0                0               0  -2.96062664e-07 -5.66923044e-06       0.99996549  -0.00603546814
                               0               0                0               0  -2.40854905e-05   -0.0060393618   1.22064156e-07 -6.03142454e-06
                               0               0                0               0   3.27118088e-07 -5.91908206e-06  -2.40018781e-05  -0.00603750654
0.1                            0               0                0               0      0.999898756    -0.010056879   -1.9367683e-07  -9.6780601e-06
                               0               0                0               0  -1.93517465e-07 -9.67768026e-06      0.999898848   -0.0100523084
                               0               0                0               0  -0.000100989591   -0.0100647173  -2.38534277e-07 -9.67717373e-06
                               0               0                0               0  -2.38406507e-07 -9.67679349e-06  -0.000101033579   -0.0100601096
0.12                           0               0                0               0      0.999853654   -0.0120640426  -2.01616999e-07 -1.16901423e-05
                               0               0                0               0  -1.73291843e-07  -1.1680213e-05      0.999853506    -0.012060391
                               0               0                0               0  -0.000151174743   -0.0120767126  -4.41510629e-07   -1.150105e-05
                               0               0                0               0   -5.4114619e-07 -1.15534273e-05  -0.000151281971   -0.0120707561
0.18                           0               0                0               0      0.999670334   -0.0180839407  -3.44259453e-07 -1.77110018e-05
                               0               0                0               0  -2.35527056e-07 -1.76779004e-05      0.999669412   -0.0180825117
                               0               0                0               0  -0.000348668404   -0.0181090043  -1.14169359e-06 -1.69747206e-05
                               0               0                0               0   -1.5295322e-06 -1.71728286e-05  -0.000348965634   -0.0180991061
0.24                           0               0                0               0      0.999415037   -0.0241000405  -6.62524403e-07 -2.37041107e-05
                               0               0                0               0  -4.79714584e-07 -2.36553953e-05      0.999413295   -0.0241000843
                               0               0                0               0  -0.000616540569   -0.0241340642  -1.97961565e-06 -2.24479641e-05
                               0               0                0               0  -2.63855808e-06 -2.27736296e-05   -0.00061703242   -0.0241203759
0.3                            0               0                0               0      0.999087876   -0.0301105388  -1.15287711e-06 -2.96637075e-05
                               0               0                0               0  -9.02505205e-07 -2.96061051e-05      0.999085313   -0.0301113702
                               0               0                0               0  -0.000954698627   -0.0301497199   -2.9562392e-06 -2.79162272e-05
                               0               0                0               0  -3.86863588e-06 -2.83521267e-05  -0.000955394832   -0.0301323847
0.36                           0               0                0               0      0.998689043   -0.0361136452  -1.81158882e-06  -3.5584326e-05
                               0               0                0               0   -1.5002818e-06 -3.55237527e-05      0.998685693   -0.0361146409
                               0               0                0               0   -0.00136298348   -0.0361538017  -4.07235303e-06 -3.33748834e-05
                               0               0                0               0  -5.22006965e-06 -3.39045732e-05   -0.00136389854   -0.0361329545
0.42                           0               0                0               0      0.998218801    -0.042107585  -2.63475949e-06  -4.1460798e-05
                               0               0                0               0  -2.26918683e-06 -4.14023842e-05      0.998214728   -0.0421081813
                               0               0                0               0    -0.0018411699   -0.0421441453  -5.32856758e-06  -3.8819241e-05
                               0               0                0               0  -6.69305367e-06 -3.94271838e-05   -0.00184232277   -0.0421199131
0.48                           0               0                0               0      0.997677485   -0.0480906025  -3.61833994e-06 -4.72882541e-05
                               0               0                0               0  -3.20514947e-06 -4.72363752e-05       0.99767278   -0.0480902926
                               0               0                0               0   -0.00238896704   -0.0481185949  -6.72531081e-06 -4.42445516e-05
                               0               0                0               0    -8.287671e-06 -4.49161389e-05   -0.00239038076   -0.0480910967
0.54                           0               0                0               0      0.997065503   -0.0540609639  -4.75815319e-06 -5.30621233e-05
                               0               0                0               0  -4.30391221e-06 -5.30204343e-05      0.997060279   -0.0540592948
                               0               0                0               0   -0.00300601906   -0.0540750056  -8.26282443e-06 -4.96460192e-05
                               0               0                0               0  -1.00038922e-05 -5.03675894e-05   -0.00300772048   -0.0540443524
0.6                            0               0                0               0       0.99638333   -0.0600169598  -6.04991496e-06 -5.87781307e-05
                               0               0                0               0  -5.56105675e-06  -5.8749604e-05      0.996377717   -0.0600135301
                               0               0                0               0   -0.00369190589   -0.0600112461  -9.94116077e-06  -5.5018809e-05
                               0               0                0               0  -1.18415744e-05 -5.57776609e-05   -0.00369392537   -0.0599775412
0.66                           0               0                0               0      0.995631508   -0.0659569082  -7.48925324e-06 -6.44322944e-05
                               0               0                0               0  -6.97202902e-06 -6.44192611e-05      0.995625651    -0.065951365
                               0               0                0               0   -0.00444614417   -0.0659252013  -1.17601802e-05 -6.03580571e-05
                               0               0                0               0  -1.38004604e-05 -6.11424589e-05   -0.00444851525   -0.0658885405
0.72                           0               0                0               0      0.994810647   -0.0718791573  -9.07172687e-06 -7.00209208e-05
                               0               0                0               0  -8.53216317e-06 -7.00251137e-05        0.9948047   -0.0718711934
                               0               0                0               0   -0.00526818825   -0.0718147749  -1.37195489e-05 -6.56588798e-05
                               0               0                0               0  -1.58801786e-05 -6.64580736e-05   -0.00527094741   -0.0717752467
0.78                           0               0                0               0      0.993921418   -0.0777820876  -1.07928431e-05 -7.55405988e-05
                               0               0                0               0  -1.02367046e-05 -7.55631975e-05      0.993915544   -0.0777714388
                               0               0                0               0    -0.0061574314   -0.0776778919  -1.58187378e-05 -7.09163832e-05
                               0               0                0               0  -1.80802423e-05 -7.17205846e-05   -0.00616061776   -0.0776355775
0.84                           0               0                0               0      0.992964555   -0.0836641147  -1.26480739e-05 -8.09881936e-05
                               0               0                0               0  -1.20808315e-05 -8.10298702e-05      0.992958923    -0.083650557
                               0               0                0               0   -0.00711320704   -0.0835125009  -1.80570213e-05 -7.61256733e-05
                               0               0                0               0  -2.04000502e-05 -7.69260664e-05   -0.00711686213   -0.0834674744
0.9                            0               0                0               0      0.991940853   -0.0895236914  -1.46328716e-05 -8.63608395e-05
                               0               0                0               0  -1.40596757e-05 -8.64218052e-05      0.991935631   -0.0895070386
                               0               0                0               0   -0.00813479015   -0.0893165763  -2.04334775e-05  -8.1281866e-05
                               0               0                0               0  -2.28388866e-05 -8.20705928e-05   -0.00813895765   -0.0892689052
0.96                           0               0                0               0      0.990851162     -0.09535931  -1.67426828e-05 -9.16559313e-05
                               0               0                0               0  -1.61683413e-05 -9.17359834e-05      0.990846522   -0.0953394107
                               0               0                0               0    -0.0092213988   -0.0950881209  -2.29469881e-05 -8.63800963e-05
                               0               0                0               0  -2.53959222e-05 -8.71502428e-05   -0.00922612435   -0.0950378658
1.02                           0               0                0               0       0.98969639    -0.101169504  -1.89729618e-05 -9.68711165e-05
                               0               0                0               0  -1.84019232e-05 -9.69696844e-05      0.989692499    -0.101146239
                               0               0                0               0    -0.0103721957    -0.100825168  -2.55962399e-05 -9.14155293e-05
                               0               0                0               0  -2.80702149e-05 -9.21611053e-05    -0.0103775267    -0.100772383
1.08                           0               0                0               0      0.988477496    -0.106952852  -2.13191826e-05 -0.000102004286
                               0               0                0               0  -2.07555229e-05 -0.000102120477       0.98847452    -0.106926132
                               0               0                0               0      -0.01158629    -0.106525782  -2.83797262e-05 -9.63833689e-05
                               0               0                0               0  -3.08607112e-05 -9.70992843e-05    -0.0115922753    -0.106470516
1.14                           0               0                0               0      0.987195491    -0.112707976  -2.37768497e-05 -0.000107053564
                               0               0                0               0  -2.32242641e-05 -0.000107186208       0.98719359    -0.112677739
                               0               0                0               0     -0.012862739    -0.112188063  -3.12957491e-05 -0.000101278868
                               0               0                0               0  -3.37662478e-05 -0.000101960904    -0.0128694289    -0.112130358
1.2                            0               0                0               0      0.985851435    -0.118433546  -2.63415082e-05 -0.000112017299
                               0               0                0               0  -2.58033066e-05 -0.000112164993      0.985850763    -0.118399755
                               0               0                0               0    -0.0142005501    -0.117810147  -3.43424227e-05 -0.000106097339
                               0               0                0               0  -3.67855531e-05 -0.000106742115    -0.0142079959    -0.117750039
1.26                           0               0                0               0      0.984446432    -0.124128282  -2.90087524e-05 -0.000116894056
                               0               0                0               0   -2.8487858e-05 -0.000117055204      0.984447138    -0.124090922
                               0               0                0               0    -0.0155986826    -0.123390207  -3.75176761e-05 -0.000110834162
                               0               0                0               0  -3.99172501e-05 -0.000111439096     -0.015606937    -0.123327727
1.32                           0               0                0               0      0.982981633    -0.129790952  -3.17742343e-05 -0.000121682602
                               0               0                0               0  -3.12731861e-05 -0.000121855456      0.982983854    -0.129750029
                               0               0                0               0    -0.0170560499    -0.128926455  -4.08192577e-05 -0.000115484793
                               0               0                0               0  -4.31598577e-05 -0.000116048066    -0.0170651663     -0.12886163
1.38                           0               0                0               0      0.981458226    -0.135420377  -3.46336698e-05   -0.0001263819
                               0               0                0               0  -3.41546276e-05 -0.000126564599      0.981462094    -0.135375916
                               0               0                0               0    -0.0185715217    -0.134417147  -4.42447403e-05 -0.000120044775
                               0               0                0               0  -4.65117945e-05 -0.000120565281    -0.0185815542    -0.134349996
1.44                           0               0                0               0      0.979877442     -0.14101543  -3.75828453e-05 -0.000130991099
                               0               0                0               0  -3.71275979e-05 -0.000131181703      0.979883078    -0.140967471
                               0               0                0               0    -0.0201439256    -0.139860576  -4.77915256e-05 -0.000124509745
                               0               0                0               0  -4.99713809e-05 -0.000124987044    -0.0201549293    -0.139791116
1.5                            0               0                0               0      0.978240544     -0.14657504  -4.06176228e-05 -0.000135509519
                               0               0                0               0  -4.01875979e-05 -0.000135706048       0.97824806    -0.146523637
                               0               0                0               0      -0.02177205    -0.145255083  -5.14568503e-05 -0.000128875444
                               0               0                0               0   -5.3536843e-05  -0.00012930971    -0.0217840803    -0.145183326
1.56                           0               0                0               0      0.976548833    -0.152098189   -4.3733944e-05 -0.000139936651
                               0               0                0               0  -4.33302211e-05  -0.00014013711      0.976558331     -0.15204341
                               0               0                0               0    -0.0234546458     -0.15059905  -5.52377924e-05  -0.00013313772
                               0               0                0               0  -5.72063156e-05  -0.00013352969     -0.023467759    -0.150525003
1.62                           0               0                0               0      0.974803638    -0.157583916  -4.69278342e-05 -0.000144272138
                               0               0                0               0  -4.65511585e-05 -0.000144474551      0.974815209    -0.157525838
                               0               0                0               0    -0.0251904289    -0.155890909  -5.91312777e-05 -0.000137292544
                               0               0                0               0  -6.09778461e-05 -0.000137643454    -0.0252046815    -0.155814575
1.68                           0               0                0               0      0.973006317    -0.163031316   -5.0195405e-05 -0.000148515771
                               0               0                0               0  -4.98462036e-05 -0.000148718207      0.973020044    -0.162970026
                               0               0                0               0    -0.0269780823    -0.161129132  -6.31340871e-05 -0.000141336005
                               0               0                0               0  -6.48493984e-05 -0.000141647539    -0.0269935316    -0.161050511
1.74                           0               0                0               0      0.971158255    -0.168439541  -5.35328569e-05  -0.00015266748
                               0               0                0               0  -5.32112558e-05 -0.000152868077      0.971174209    -0.168375133
                               0               0                0               0    -0.0288162589    -0.166312245  -6.72428639e-05 -0.000145264328
                               0               0                0               0   -6.8818857e-05 -0.000145538552    -0.0288329622    -0.166231332
1.8                            0               0                0               0       0.96926086    -0.173807802  -5.69364803e-05 -0.000156727322
                               0               0                0               0  -5.66423232e-05 -0.000156924312      0.969279104    -0.173740377
                               0               0                0               0    -0.0307035829    -0.171438815  -7.14541217e-05 -0.000149073872
                               0               0                0               0  -7.28840317e-05 -0.000149313176    -0.0307215982    -0.171355603
1.86                           0               0                0               0      0.967315562    -0.179135368  -6.04026571e-05 -0.000160695478
                               0               0                0               0  -6.01355241e-05 -0.000160887205      0.967336146    -0.179065031
                               0               0                0               0    -0.0326386531    -0.176507463  -7.57642529e-05 -0.000152761139
                               0               0                0               0  -7.70426614e-05 -0.000152968172    -0.0326580388    -0.176421941
1.92                           0               0                0               0      0.965323808    -0.184421565  -6.39278611e-05  -0.00016457224
                               0               0                0               0  -6.36870892e-05 -0.000164757179      0.965346776    -0.184348425
                               0               0                0               0    -0.0346200444    -0.181516854  -8.01695368e-05 -0.000156322777
                               0               0                0               0  -8.12924196e-05 -0.000156500386    -0.0346408594    -0.181429009
1.98                           0               0                0               0      0.963287062     -0.18966578  -6.75086576e-05 -0.000168358008
                               0               0                0               0  -6.72933613e-05  -0.00016853478      0.963312448    -0.189589948
                               0               0                0               0    -0.0366463109    -0.186465703  -8.46661484e-05 -0.000159755585
                               0               0                0               0  -8.56309184e-05 -0.000159906752    -0.0366686143    -0.186375519
2.04                           0               0                0               0      0.961206802    -0.194867457  -7.11417038e-05 -0.000172053278
                               0               0                0               0  -7.09507955e-05 -0.000172220667       0.96123463    -0.194789047
                               0               0                0               0    -0.0387159872    -0.191352776  -8.92501672e-05 -0.000163056517
                               0               0                0               0   -9.0055714e-05 -0.000163184298    -0.0387398389    -0.191260233
2.1                            0               0                0               0      0.959084517    -0.200026101  -7.48237473e-05  -0.00017565864
                               0               0                0               0  -7.46559589e-05 -0.000175815601      0.959114804    -0.199945224
                               0               0                0               0    -0.0408275916    -0.196176885  -9.39175866e-05 -0.000166222683
                               0               0                0               0  -9.45643117e-05 -0.000166330145    -0.0408530517    -0.196081962
2.16                           0               0                0               0      0.956921705    -0.205141273  -7.85516252e-05 -0.000179174768
                               0               0                0               0  -7.84055295e-05  -0.00017932044       0.95695446    -0.205058042
                               0               0                0               0    -0.0429796276    -0.200936892  -9.86643226e-05 -0.000169251355
                               0               0                0               0  -9.91541703e-05 -0.000169341521    -0.0430067571    -0.200839565
2.22                           0               0                0               0      0.954719871    -0.210212594  -8.23222629e-05 -0.000182602416
                               0               0                0               0  -8.21962942e-05 -0.000182736129      0.954755096    -0.210127122
                               0               0                0               0    -0.0451705867    -0.205631706  -0.000103486223 -0.000172139965
                               0               0                0               0  -0.000103822708 -0.000172215753    -0.0451994471     -0.20553195
2.28                           0               0                0               0      0.952480524    -0.215239745  -8.61326718e-05 -0.000185942413
                               0               0                0               0  -8.60251476e-05 -0.000186063692      0.952518213     -0.21515214
                               0               0                0               0    -0.0473989501    -0.210260286  -0.000108379078 -0.000174886109
                               0               0                0               0  -0.000108567307 -0.000174950282    -0.0474296035    -0.210158073
2.34                           0               0                0               0      0.950205176    -0.220222463  -8.99799479e-05 -0.000189195656
                               0               0                0               0  -8.98890894e-05  -0.00018930423      0.950245318    -0.220132831
                               0               0                0               0    -0.0496631908    -0.214821638  -0.000113338627 -0.000177487545
                               0               0                0               0  -0.000113385318 -0.000177542659    -0.0496957003    -0.214716938
2.4                            0               0                0               0      0.947895339    -0.225160541  -9.38612694e-05 -0.000192363107
                               0               0                0               0  -9.37852219e-05 -0.000192458908      0.947937917    -0.225068988
                               0               0                0               0    -0.0519617761    -0.219314813  -0.000118360569 -0.000179942196
                               0               0                0               0  -0.000118274068 -0.000179990554    -0.0519962054    -0.219207596
2.46                           0               0                0               0      0.945552523    -0.230053833  -9.77738941e-05 -0.000195445786
                               0               0                0               0  -9.77107473e-05 -0.000195528955      0.945597513    -0.229960458
                               0               0                0               0    -0.0542931689    -0.223738911  -0.000123440573 -0.000182248148
                               0               0                0               0   -0.00012323086 -0.000182291754    -0.0543295829    -0.223629145
2.52                           0               0                0               0      0.943178234    -0.234902247  -0.000101715157 -0.000198444772
                               0               0                0               0  -0.000101662965 -0.000198515653       0.94322561    -0.234807147
                               0               0                0               0    -0.0566558303    -0.228093077  -0.000128574286 -0.000184403649
                               0               0                0               0  -0.000128252982 -0.000184444175    -0.0566942948    -0.227980728
2.58                           0               0                0               0      0.940773972    -0.239705747  -0.000105682468 -0.000201361193
                               0               0                0               0  -0.000105639267  -0.00020142034      0.940823702    -0.239609013
                               0               0                0               0    -0.0590482211      -0.2323765  -0.000133757339 -0.000186407108
                               0               0                0               0  -0.000133337711 -0.000186445857    -0.0590888031    -0.232261533
2.64                           0               0                0               0      0.938341229    -0.244464353  -0.000109673309  -0.00020419623
                               0               0                0               0  -0.000109637137 -0.000204244395      0.938393279    -0.244366073
                               0               0                0               0    -0.0614688037    -0.236588415  -0.000138985362 -0.000188257092
                               0               0                0               0  -0.000138482315 -0.000188294974    -0.0615115715    -0.236470792
2.7                            0               0                0               0      0.935881488    -0.249178138  -0.000113685229 -0.000206951108
                               0               0                0               0  -0.000113654144 -0.000206989245      0.935935821    -0.249078395
                               0               0                0               0    -0.0639160438    -0.240728096  -0.000144253986 -0.000189952325
                               0               0                0               0   -0.00014368406 -0.000189989833    -0.0639610668    -0.240607781
2.76                           0               0                0               0      0.933396222     -0.25384723  -0.000117715847 -0.000209627098
                               0               0                0               0  -0.000117687943 -0.000209656354      0.933452796    -0.253746102
                               0               0                0               0    -0.0663884121    -0.244794863  -0.000149558855 -0.000191491684
                               0               0                0               0  -0.000148940212 -0.000191528881    -0.0664357613    -0.244671817
2.82                           0               0                0               0      0.930886888    -0.258471809  -0.000121762841 -0.000212225512
                               0               0                0               0  -0.000121736266 -0.000212247222      0.930945662    -0.258369368
                               0               0                0               0    -0.0688843856    -0.248788074  -0.000154895634 -0.000192874196
                               0               0                0               0  -0.000154248038 -0.000192910707    -0.0689341336    -0.248662258
2.88                           0               0                0               0      0.928354931    -0.263052107  -0.000125823951 -0.000214747703