! TOUCHSTONE file generated by CST MICROWAVE STUDIO
! Date and time: Wed Apr 16 11:32:48 2025
! Project name: LOSSLESS_rogers4003c_air_gapped_wideband_balanced.cst
! Parameters = {h=1.5; lambda=10; period=5; phi=0; theta=0; thickness=0.508; w_mesh_1=2; w_mesh_2=2; w_patch_1=1.6; w_patch_2=1.6}
! Header version: 2018
! Port assignment regex: !\s*Touchstone port\s*([0-9]+)\s*=\s*(CST MWS port|CST DS port)\s*([0-9]+|Zmin|Zmax)\s*\(\"(.*)\"\)(\s*mode\s*([0-9]+))?.*
! Touchstone port assignment:
! Touchstone port 1 = CST MWS port Zmin ("") mode 1
! Touchstone port 2 = CST MWS port Zmin ("") mode 2
! Touchstone port 3 = CST MWS port Zmax ("") mode 1
! Touchstone port 4 = CST MWS port Zmax ("") mode 2
! S-Parameters are not renormalized. Unphysical impedance of 50 will be written to the file.
# GHz S RI R 50
0                              0               0                0               0      0.999890824  8.65084795e-06   1.50849275e-06 -3.92818792e-06
                               0               0                0               0   1.50836919e-06 -3.83488823e-06      0.999897951 -6.39010922e-06
                               0               0                0               0   0.000104741236 -9.64927187e-05   2.40371233e-06 -4.44306014e-06
                               0               0                0               0   2.42635451e-06 -4.41791504e-06   0.000106420341 -9.58529734e-05
0.06                           0               0                0               0      0.999923203   -0.0058132709   5.52048401e-07 -4.32222649e-06
                               0               0                0               0   5.52187114e-07 -4.28581544e-06      0.999926024  -0.00581184589
                               0               0                0               0   6.89728047e-06  -0.00586056999   8.96509113e-07 -4.52940125e-06
                               0               0                0               0   9.05598138e-07  -4.5202396e-06     7.653293e-06  -0.00585291486
0.1                            0               0                0               0      0.999905894  -0.00969482177  -8.92093446e-08 -4.58480017e-06
                               0               0                0               0   -8.9033189e-08 -4.58623989e-06      0.999906135  -0.00968245197
                               0               0                0               0  -9.41677104e-05  -0.00970300507   -1.1397263e-07  -4.5845256e-06
                               0               0                0               0  -1.13961058e-07 -4.58596355e-06  -9.39325611e-05  -0.00969065842
0.12                           0               0                0               0      0.999885576   -0.0116355383  -4.10932752e-07 -4.71605001e-06
                               0               0                0               0  -4.10779148e-07  -4.7363922e-06      0.999884613   -0.0116177075
                               0               0                0               0  -0.000155455249   -0.0116240064   -6.2092743e-07 -4.61134738e-06
                               0               0                0               0  -6.25467137e-07 -4.61806811e-06  -0.000155452083     -0.01160931
0.18                           0               0                0               0      0.999777992   -0.0174568941  -1.38050562e-06 -5.10964596e-06
                               0               0                0               0  -1.38058497e-06 -5.18660211e-06      0.999773761   -0.0174227315
                               0               0                0               0   -0.00038234607   -0.0173856198  -2.14868806e-06 -4.68881258e-06
                               0               0                0               0   -2.1669316e-06 -4.71131288e-06  -0.000382924743   -0.0173638606
0.24                           0               0                0               0       0.99960053   -0.0232760837  -2.35672568e-06 -5.50300162e-06
                               0               0                0               0  -2.35728625e-06 -5.63642863e-06       0.99959354    -0.023225677
                               0               0                0               0  -0.000673776929   -0.0231442275  -3.68686456e-06 -4.76170928e-06
                               0               0                0               0  -3.71888653e-06 -4.79988456e-06  -0.000674765803   -0.0231153878
0.3                            0               0                0               0      0.999353299    -0.029091856  -3.33964897e-06  -5.8961042e-06
                               0               0                0               0  -3.34093944e-06 -6.08585497e-06      0.999344054   -0.0290253065
                               0               0                0               0   -0.00102972161   -0.0288986469  -5.23554969e-06 -4.82994823e-06
                               0               0                0               0  -5.28142417e-06 -4.88369211e-06   -0.00103094853   -0.0288627133
0.36                           0               0                0               0      0.999036438   -0.0349029645  -4.32933211e-06 -6.28894073e-06
                               0               0                0               0  -4.33160153e-06 -6.53486421e-06      0.999025438   -0.0348203866
                               0               0                0               0   -0.00145012594   -0.0346476963  -6.79483727e-06 -4.89343847e-06
                               0               0                0               0  -6.85463779e-06 -4.96264275e-06   -0.00145141838   -0.0346046594
0.42                           0               0                0               0       0.99865012   -0.0407081682  -5.32583231e-06 -6.68149812e-06
                               0               0                0               0  -5.32933007e-06 -6.98343921e-06      0.998637853   -0.0406096892
                               0               0                0               0   -0.00193490787   -0.0403901958  -8.36482215e-06 -4.95208729e-06
                               0               0                0               0  -8.43862165e-06 -5.03664195e-06   -0.00193609305   -0.0403400506
0.48                           0               0                0               0      0.998194543   -0.0465062326  -6.32920738e-06 -7.07376315e-06
                               0               0                0               0  -6.33418316e-06 -7.43156265e-06      0.998181495   -0.0463919923
                               0               0                0               0   -0.00248395755   -0.0461249683  -9.94560024e-06 -5.00580023e-06
                               0               0                0               0  -1.00334711e-05 -5.10559339e-06   -0.00248486257   -0.0460677138
0.54                           0               0                0               0      0.997669938   -0.0522959301  -7.33951569e-06 -7.46572248e-06
                               0               0                0               0  -7.34621948e-06 -7.87921702e-06      0.997656584   -0.0521660807
                               0               0                0               0   -0.00309713744     -0.05185084  -1.15372685e-05 -5.05448095e-06
                               0               0                0               0  -1.16392824e-05 -5.16939887e-06    -0.0030975894   -0.0517864795
0.6                            0               0                0               0      0.997076565   -0.0580760418  -8.35681628e-06 -7.85736261e-06
                               0               0                0               0  -8.36549827e-06 -8.32638464e-06      0.997063374   -0.0579307473
                               0               0                0               0    -0.0037742825   -0.0575666415   -1.3139925e-05 -5.09803129e-06
                               0               0                0               0   -1.3256153e-05 -5.22795836e-06   -0.00377410861   -0.0574951824
0.66                           0               0                0               0      0.996414714   -0.0638453575  -9.38116874e-06 -8.24866993e-06
                               0               0                0               0  -9.39207935e-06 -8.77304761e-06      0.996402146   -0.0636847936
                               0               0                0               0   -0.00451520028   -0.0632712085  -1.47536689e-05 -5.13635118e-06
                               0               0                0               0  -1.48841815e-05 -5.28116986e-06   -0.00451422805   -0.0631926624
0.72                           0               0                0               0      0.995684703    -0.069602677  -1.04126333e-05  -8.6396307e-06
                               0               0                0               0  -1.04260231e-05 -9.21918787e-06      0.995673209   -0.0694270307
                               0               0                0               0   -0.00531967125   -0.0689633827  -1.63786005e-05 -5.16933859e-06
                               0               0                0               0  -1.65234672e-05 -5.32892944e-06   -0.00531772854   -0.0688777652
0.78                           0               0                0               0      0.994886879    -0.075346811  -1.14512709e-05 -9.03023103e-06
                               0               0                0               0  -1.14673906e-05 -9.66478718e-06      0.994876901     -0.07515628
                               0               0                0               0   -0.00618744891   -0.0746420122  -1.80148211e-05 -5.19688951e-06
                               0               0                0               0   -1.8174111e-05 -5.37113114e-06   -0.00618436412   -0.0745493434
0.84                           0               0                0               0      0.994021616   -0.0810765817   -1.2497143e-05 -9.42045695e-06
                               0               0                0               0  -1.25162434e-05 -1.01098271e-05      0.994013587   -0.0808713744
                               0               0                0               0   -0.00711826014   -0.0803059531  -1.96624333e-05  -5.2188979e-06
                               0               0                0               0  -1.98362145e-05 -5.40766697e-06   -0.00711386232   -0.0802062569
0.9                            0               0                0               0      0.993089318    -0.086790824  -1.35503118e-05 -9.81029431e-06
                               0               0                0               0  -1.35726437e-05  -1.0554289e-05      0.993083662   -0.0865711587
                               0               0                0               0   -0.00811180548   -0.0859540694  -2.13215407e-05 -5.23525562e-06
                               0               0                0               0  -2.15098807e-05 -5.43842682e-06   -0.00810592441   -0.0858473739
0.96                           0               0                0               0      0.992090414   -0.0924883857    -1.461084e-05 -1.01997289e-05
                               0               0                0               0  -1.46366543e-05 -1.09981541e-05      0.992087545   -0.0922544907
                               0               0                0               0   -0.00916775941   -0.0915852344  -2.29922483e-05 -5.24585244e-06
                               0               0                0               0  -2.31952136e-05 -5.46329844e-06   -0.00916022579   -0.0914715719
1.02                           0               0                0               0      0.991025361    -0.098168129  -1.56787912e-05 -1.05887463e-05
                               0               0                0               0  -1.57083387e-05 -1.14414034e-05      0.991025682   -0.0979202417
                               0               0                0               0    -0.0102857707   -0.0971983311  -2.46746621e-05 -5.25057593e-06
                               0               0                0               0  -2.48923184e-05 -5.48216741e-06    -0.0102764163   -0.0970777377
1.08                           0               0                0               0      0.989894643    -0.103828931  -1.67542296e-05  -1.0977332e-05
                               0               0                0               0  -1.67877609e-05 -1.18840177e-05      0.989898548    -0.103567297
                               0               0                0               0     -0.011465463    -0.102792253  -2.63688893e-05 -5.24931144e-06
                               0               0                0               0  -2.66013015e-05 -5.49491703e-06    -0.0114541205    -0.102664769
1.14                           0               0                0               0      0.988698767    -0.109469683  -1.78372198e-05 -1.13654715e-05
                               0               0                0               0  -1.78749857e-05 -1.23259778e-05       0.98870664    -0.109194559
                               0               0                0               0    -0.0127064346    -0.108365905  -2.80750385e-05 -5.24194206e-06
                               0               0                0               0  -2.83222704e-05 -5.50142835e-06    -0.0126929382    -0.108231575
1.2                            0               0                0               0      0.987438269    -0.115089294  -1.89278276e-05 -1.17531501e-05
                               0               0                0               0  -1.89700783e-05  -1.2767264e-05      0.987450481    -0.114800942
                               0               0                0               0    -0.0140082599    -0.113918204  -2.97932192e-05 -5.22834853e-06
                               0               0                0               0  -3.00553339e-05 -5.50158005e-06     -0.013992445    -0.113777075
1.26                           0               0                0               0      0.986113706     -0.12068669   -2.0026119e-05 -1.21403528e-05
                               0               0                0               0  -2.00731049e-05 -1.32078567e-05      0.986130619    -0.120385381
                               0               0                0               0    -0.0153704887     -0.11944808  -3.15235426e-05 -5.20840924e-06
                               0               0                0               0  -3.18006019e-05 -5.49524841e-06    -0.0153521923    -0.119300204
1.32                           0               0                0               0      0.984725661    -0.126260815   -2.1132161e-05 -1.25270647e-05
                               0               0                0               0   -2.1184132e-05  -1.3647736e-05      0.984747626    -0.125946826
                               0               0                0               0    -0.0167926475    -0.124954474  -3.32661207e-05 -5.18200012e-06
                               0               0                0               0  -3.35581857e-05 -5.48230729e-06    -0.0167717081    -0.124799908
1.38                           0               0                0               0      0.983274739    -0.131810628  -2.22460213e-05 -1.29132709e-05
                               0               0                0               0   -2.2303227e-05 -1.40868819e-05      0.983302095    -0.131484245
                               0               0                0               0    -0.0182742397    -0.130436345  -3.50210672e-05 -5.14899464e-06
                               0               0                0               0  -3.53281977e-05   -5.462628e-06    -0.0182504976    -0.130275148
1.44                           0               0                0               0       0.98176157    -0.137335111  -2.33677682e-05 -1.32989561e-05
                               0               0                0               0  -2.34304578e-05 -1.45252743e-05      0.981794646    -0.136996625
                               0               0                0               0    -0.0198147462    -0.135892663  -3.67884968e-05 -5.10926371e-06
                               0               0                0               0  -3.71107516e-05 -5.43607931e-06    -0.0197880434    -0.135724897
1.5                            0               0                0               0      0.980186804    -0.142833263  -2.44974709e-05 -1.36841052e-05
                               0               0                0               0  -2.45658932e-05 -1.49628926e-05      0.980225915    -0.142482971
                               0               0                0               0    -0.0214136256    -0.141322414  -3.85685257e-05 -5.06267562e-06
                               0               0                0               0  -3.89059625e-05 -5.40252737e-06    -0.0213838062    -0.141148148
1.56                           0               0                0               0      0.978551112    -0.148304104  -2.56351991e-05 -1.40687027e-05
                               0               0                0               0  -2.57096025e-05 -1.53997165e-05      0.978596565    -0.147942309
                               0               0                0               0    -0.0230703153    -0.146724602  -4.03612714e-05 -5.00909601e-06
                               0               0                0               0  -4.07139467e-05 -5.36183564e-06    -0.0230372252    -0.146543905
1.62                           0               0                0               0      0.976855187    -0.153746674  -2.67810236e-05 -1.44527332e-05
                               0               0                0               0  -2.68616558e-05 -1.58357251e-05      0.976907275    -0.153373684
                               0               0                0               0    -0.0247842315    -0.152098244  -4.21668526e-05 -4.94838778e-06
                               0               0                0               0  -4.25348217e-05 -5.31386482e-06    -0.0247477189     -0.15191119
1.68                           0               0                0               0      0.975099743    -0.159160035  -2.79350156e-05 -1.48361813e-05
                               0               0                0               0  -2.80221239e-05 -1.62708978e-05      0.975158748    -0.158776162
                               0               0                0               0    -0.0265547703    -0.157442377  -4.39853897e-05 -4.88041107e-06
                               0               0                0               0  -4.43687065e-05 -5.25847282e-06    -0.0265146856    -0.157249043
1.74                           0               0                0               0      0.973285509    -0.164543269  -2.90972474e-05 -1.52190312e-05
                               0               0                0               0  -2.91910783e-05 -1.67052134e-05      0.973351702     -0.16414883
                               0               0                0               0    -0.0283813081    -0.162756053  -4.58170041e-05  -4.8050231e-06
                               0               0                0               0  -4.62157216e-05 -5.19551465e-06    -0.0283375039     -0.16255652
1.8                            0               0                0               0      0.971413238    -0.169895481  -3.02677919e-05 -1.56012674e-05
                               0               0                0               0  -3.03685912e-05 -1.71386509e-05      0.971486876    -0.169490797
                               0               0                0               0    -0.0302632019    -0.168038343   -4.7661819e-05 -4.72207823e-06
                               0               0                0               0  -4.80759884e-05 -5.12484241e-06    -0.0302155333    -0.167832694
1.86                           0               0                0               0      0.969483695    -0.175215799  -3.14467228e-05  -1.5982874e-05
                               0               0                0               0  -3.15547356e-05  -1.7571189e-05      0.969565028    -0.174801194
                               0               0                0               0    -0.0321997904    -0.173288337  -4.95199587e-05 -4.63142777e-06
                               0               0                0               0  -4.99496302e-05 -5.04630514e-06     -0.032148115    -0.173076659
1.92                           0               0                0               0      0.967497668    -0.180503372  -3.26341146e-05 -1.63638352e-05
                               0               0                0               0  -3.27495851e-05 -1.80028062e-05      0.967586928    -0.180079173
                               0               0                0               0    -0.0341903946    -0.178505141  -5.13915491e-05 -4.53291999e-06
                               0               0                0               0  -5.18367713e-05 -4.95974884e-06    -0.0341345725    -0.178287525
1.98                           0               0                0               0      0.965455955    -0.185757374  -3.38300428e-05 -1.67441352e-05
                               0               0                0               0  -3.39532142e-05 -1.84334811e-05      0.965553369     -0.18532391
                               0               0                0               0     -0.036234318    -0.183687884  -5.32767176e-05 -4.42640001e-06
                               0               0                0               0  -5.37375377e-05 -4.86501632e-06    -0.0361742121    -0.183464422
2.04                           0               0                0               0      0.963359375    -0.190977001  -3.50345836e-05 -1.71237581e-05
                               0               0                0               0  -3.51656982e-05 -1.88631919e-05      0.963465153    -0.190534604
                               0               0                0               0    -0.0383308479    -0.188835711  -5.51755931e-05 -4.31170974e-06
                               0               0                0               0  -5.56520567e-05 -4.76194717e-06    -0.0382663236      -0.1886065
2.1                            0               0                0               0      0.961208758    -0.196161474   -3.6247814e-05 -1.75026877e-05
                               0               0                0               0   -3.6387113e-05 -1.92919168e-05      0.961323101    -0.195710479
                               0               0                0               0    -0.0404792556     -0.19394779  -5.70883059e-05 -4.18868779e-06
                               0               0                0               0  -5.75804572e-05 -4.65037767e-06    -0.0404101812    -0.193712927
2.16                           0               0                0               0      0.959004949    -0.201310038  -3.74698118e-05 -1.78809082e-05
                               0               0                0               0  -3.76175354e-05 -1.97196341e-05      0.959128047    -0.200850778
                               0               0                0               0    -0.0426787972    -0.199023307  -5.90149879e-05  -4.0571694e-06
                               0               0                0               0  -5.95228693e-05 -4.53014069e-06     -0.042605044    -0.198782895
2.22                           0               0                0               0      0.956748807    -0.206421962  -3.87006559e-05 -1.82584033e-05
                               0               0                0               0   -3.8857043e-05 -2.01463215e-05      0.956880836    -0.205954773
                               0               0                0               0    -0.0449287145     -0.20406147  -6.09557725e-05 -3.91698633e-06
                               0               0                0               0   -6.1479425e-05 -4.40106566e-06    -0.0448501565    -0.203815612
2.28                           0               0                0               0      0.954441202    -0.211496538  -3.99404259e-05 -1.86351572e-05
                               0               0                0               0   -4.0105714e-05 -2.05719571e-05       0.95458233    -0.211021758
                               0               0                0               0    -0.0472282354    -0.209061507  -6.29107948e-05 -3.76796683e-06
                               0               0                0               0  -6.34502574e-05 -4.26297841e-06    -0.0471447498     -0.20881031
2.34                           0               0                0               0      0.952083017    -0.216533086  -4.11892023e-05 -1.90111535e-05
                               0               0                0               0  -4.13636278e-05 -2.09965187e-05      0.952233397     -0.21605105
                               0               0                0               0    -0.0495765747    -0.214022667  -6.48801912e-05  -3.6099355e-06
                               0               0                0               0  -6.54355016e-05 -4.11570117e-06    -0.0494880416     -0.21376624
2.4                            0               0                0               0      0.949675144    -0.221530948  -4.24470666e-05 -1.93863763e-05
                               0               0                0               0  -4.26308643e-05 -2.14199839e-05      0.949834921    -0.221041994
                               0               0                0               0    -0.0519729349    -0.218944222  -6.68641001e-05 -3.44271324e-06
                               0               0                0               0  -6.74352937e-05  -3.9590524e-06    -0.0518792377    -0.218682675
2.46                           0               0                0               0      0.947218485    -0.226489493  -4.37141011e-05 -1.97608094e-05
                               0               0                0               0  -4.39075044e-05 -2.18423304e-05      0.947387793    -0.225993956
                               0               0                0               0    -0.0544165069    -0.223825463  -6.88626613e-05 -3.26611711e-06
                               0               0                0               0  -6.94497719e-05 -3.79284675e-06     -0.054317532     -0.22355891
2.52                           0               0                0               0      0.944713954    -0.231408113  -4.49903891e-05 -2.01344368e-05
                               0               0                0               0  -4.51936297e-05 -2.22635357e-05      0.944892915    -0.230906329
                               0               0                0               0    -0.0569064707    -0.228665704  -7.08760163e-05  -3.0799603e-06
                               0               0                0               0  -7.14790758e-05 -3.61689494e-06    -0.0568021076    -0.228394261
2.58                           0               0                0               0       0.94216247    -0.236286228  -4.62760149e-05 -2.05072422e-05
                               0               0                0               0  -4.64893227e-05 -2.26835775e-05      0.942351195    -0.235778531
                               0               0                0               0    -0.0594419958    -0.233464281  -7.29043082e-05 -2.88405196e-06
                               0               0                0               0  -7.35233464e-05  -3.4310037e-06    -0.0593321375    -0.233188065
2.64                           0               0                0               0      0.939564961    -0.241123281  -4.75710636e-05 -2.08792097e-05
                               0               0                0               0  -4.77946669e-05 -2.31024331e-05      0.939763552    -0.240610003
                               0               0                0               0    -0.0620222425    -0.238220553  -7.49476819e-05 -2.67819717e-06
                               0               0                0               0  -7.55827268e-05 -3.23497561e-06    -0.0619067851    -0.237939683
2.7                            0               0                0               0      0.936922364    -0.245918741  -4.88756213e-05 -2.12503233e-05
                               0               0                0               0  -4.91097465e-05   -2.352008e-05      0.937130911    -0.245400214
                               0               0                0               0     -0.064646362    -0.242933898  -7.70062841e-05 -2.46219677e-06
                               0               0                0               0  -7.76573614e-05 -3.02860903e-06    -0.0645252049    -0.242648496
2.76                           0               0                0               0      0.934235618    -0.250672103  -5.01897753e-05  -2.1620567e-05
                               0               0                0               0  -5.04346467e-05 -2.39364956e-05      0.934454202    -0.250148655
                               0               0                0               0    -0.0673134976    -0.247603719   -7.9080263e-05 -2.23584732e-06
                               0               0                0               0  -7.97473964e-05 -2.81169802e-06    -0.0671865436    -0.247313908
2.82                           0               0                0               0       0.93150567    -0.255382886  -5.15136136e-05 -2.19899249e-05
                               0               0                0               0  -5.17694536e-05 -2.43516573e-05      0.931734362    -0.254854843
                               0               0                0               0     -0.070022785     -0.25222944  -8.11697688e-05 -1.99894093e-06
                               0               0                0               0  -8.18529798e-05 -2.58403218e-06    -0.0698899403    -0.251935344
2.88                           0               0                0               0      0.928733473    -0.260050635  -5.28472254e-05 -2.23583813e-05