! TOUCHSTONE file generated by CST MICROWAVE STUDIO
! Date and time: Wed Apr 16 11:32:55 2025
! Project name: LOSSLESS_rogers4003c_air_gapped_wideband_balanced.cst
! Parameters = {h=5; lambda=10; period=5; phi=0; theta=0; thickness=0.508; w_mesh_1=2; w_mesh_2=2; w_patch_1=1.6; w_patch_2=1.6}
! Header version: 2018
! Port assignment regex: !\s*Touchstone port\s*([0-9]+)\s*=\s*(CST MWS port|CST DS port)\s*([0-9]+|Zmin|Zmax)\s*\(\"(.*)\"\)(\s*mode\s*([0-9]+))?.*
! Touchstone port assignment:
! Touchstone port 1 = CST MWS port Zmin ("") mode 1
! Touchstone port 2 = CST MWS port Zmin ("") mode 2
! Touchstone port 3 = CST MWS port Zmax ("") mode 1
! Touchstone port 4 = CST MWS port Zmax ("") mode 2
! S-Parameters are not renormalized. Unphysical impedance of 50 will be written to the file.
# GHz S RI R 50
0                              0               0                0               0                1 -4.77109835e-06   2.88336327e-07  1.73142288e-07
                               0               0                0               0   4.94783866e-08 -2.98005496e-08                1 -2.68302743e-05
                               0               0                0               0   8.31607414e-05  0.000141260076  -3.57003928e-07  5.66228449e-07
                               0               0                0               0  -3.65773505e-07  5.84003494e-07    0.00014392995  4.95920499e-05
0.06                           0               0                0               0      0.999967316  -0.00588217652   1.21591868e-07  6.02245612e-07
                               0               0                0               0   2.51448426e-08  5.27664257e-07      0.999965269  -0.00588854188
                               0               0                0               0  -2.59027415e-06  -0.00583148649  -1.15057524e-07  7.61848873e-07
                               0               0                0               0  -1.18393412e-07  7.69263594e-07   2.03960624e-05   -0.0058649615
0.1                            0               0                0               0      0.999903876  -0.00979977096   1.78148441e-08  8.99149786e-07
                               0               0                0               0   1.77869907e-08  8.99674314e-07      0.999903936  -0.00979665968
                               0               0                0               0  -9.61571338e-05  -0.00980720404   5.12784775e-08  8.98773039e-07
                               0               0                0               0    5.1216294e-08  8.99297769e-07  -9.61079498e-05  -0.00980408617
0.12                           0               0                0               0      0.999860729   -0.0117581815  -3.16521342e-08  1.05080264e-06
                               0               0                0               0   1.67598054e-08  1.08571881e-06      0.999861881   -0.0117506148
                               0               0                0               0  -0.000153853559   -0.0117930168   1.36039309e-07  9.69224495e-07
                               0               0                0               0   1.37507384e-07  9.66314207e-07   -0.00016461835   -0.0117722624
0.18                           0               0                0               0      0.999685605   -0.0176311314  -1.69538474e-07  1.51829276e-06
                               0               0                0               0   2.42433413e-08  1.64373083e-06      0.999690155   -0.0176112793
                               0               0                0               0  -0.000370548624   -0.0177414229   3.97035548e-07  1.18867645e-06
                               0               0                0               0   4.02661006e-07  1.17552188e-06  -0.000411220331   -0.0176703919
0.24                           0               0                0               0      0.999442046    -0.023499374  -2.90207254e-07   2.0039735e-06
                               0               0                0               0   4.74816952e-08  2.20107797e-06      0.999450106   -0.0234687702
                               0               0                0               0  -0.000652538754   -0.0236747963   6.68732786e-07  1.42050982e-06
                               0               0                0               0   6.77854974e-07  1.39724083e-06  -0.000719460767   -0.0235574228
0.3                            0               0                0               0      0.999130223   -0.0293612626  -3.91827058e-07  2.50687166e-06
                               0               0                0               0   8.63283146e-08  2.75714999e-06      0.999141829   -0.0293213306
                               0               0                0               0  -0.000999631162   -0.0295912309   9.51987454e-07  1.66500955e-06
                               0               0                0               0   9.63934956e-07  1.63180879e-06    -0.0010893341   -0.0294314217
0.36                           0               0                0               0      0.998750374   -0.0352151597  -4.72628936e-07  3.02577941e-06
                               0               0                0               0   1.40605027e-07  3.31135077e-06      0.998765497   -0.0351672151
                               0               0                0               0   -0.00141157723   -0.0354888244   1.24771289e-06   1.9224358e-06
                               0               0                0               0   1.26180741e-06  1.87954241e-06   -0.00152077815   -0.0352904511
0.42                           0               0                0               0      0.998302805   -0.0410594394  -5.30942319e-07  3.55925622e-06
                               0               0                0               0   2.10103357e-07  3.86310021e-06      0.998321355   -0.0410046938
                               0               0                0               0   -0.00188807289   -0.0413656806   1.55688118e-06  2.19301888e-06
                               0               0                0               0   1.57244205e-06  2.14073202e-06   -0.00201367409    -0.041132572
0.48                           0               0                0               0      0.997787885   -0.0468924911  -5.65231757e-07  4.10563703e-06
                               0               0                0               0    2.9458597e-07  4.41183604e-06      0.997809726   -0.0468320547
                               0               0                0               0   -0.00242875908   -0.0472199119   1.88052477e-06   2.4769537e-06
                               0               0                0               0   1.89687409e-06  2.41563585e-06   -0.00256784644   -0.0469558456
0.54                           0               0                0               0      0.997206052   -0.0527127219  -5.74133185e-07  4.66304729e-06
                               0               0                0               0   3.93788227e-07  4.95701541e-06      0.997231005   -0.0526476076
                               0               0                0               0   -0.00303322232   -0.0530496409   2.21973767e-06  2.77439358e-06
                               0               0                0               0   2.23620616e-06  2.70447361e-06   -0.00318306331   -0.0527583361
0.6                            0               0                0               0      0.996557807   -0.0585185602  -5.56488297e-07  5.22942474e-06
                               0               0                0               0   5.07419833e-07  5.49811636e-06      0.996585656   -0.0584496872
                               0               0                0               0   -0.00370099541   -0.0588530026   2.57567626e-06  3.08544362e-06
                               0               0                0               0   2.59160982e-06  3.00741946e-06   -0.00385903665    -0.058538113
0.66                           0               0                0               0      0.995843711    -0.064308458  -5.11375574e-07  5.80254775e-06
                               0               0                0               0   6.35166567e-07  6.03463919e-06      0.995874214   -0.0642366556
                               0               0                0               0   -0.00443155815   -0.0646281466   2.94955964e-06  3.41015352e-06
                               0               0                0               0   2.96432659e-06  3.32459433e-06   -0.00459542267   -0.0642932526
0.72                           0               0                0               0      0.995064391   -0.0700808936  -4.38136522e-07  6.38006961e-06
                               0               0                0               0   7.76692073e-07  6.56610759e-06      0.995097283   -0.0700069056
                               0               0                0               0    -0.0052243383   -0.0703732387   3.34266921e-06  3.74850982e-06
                               0               0                0               0   3.35566836e-06  3.65605751e-06   -0.00539182231   -0.0700218412
0.78                           0               0                0               0       0.99422053    -0.075834375  -3.36395859e-07  6.95955772e-06
                               0               0                0               0   9.31639701e-07  7.09206965e-06      0.994255529   -0.0757588634
                               0               0                0               0   -0.00607871243   -0.0760864629    3.7563477e-06  4.10042769e-06
                               0               0                0               0   3.76701701e-06  4.00179771e-06   -0.00624778193   -0.0757219763
0.84                           0               0                0               0      0.993312872   -0.0815674418  -2.06074576e-07  7.53853649e-06
                               0               0                0               0   1.09963438e-06  7.61209869e-06      0.993349684   -0.0814909911
                               0               0                0               0    -0.0069940071   -0.0817660233   4.19199727e-06  4.46574218e-06
                               0               0                0               0   4.19982326e-06   4.3617234e-06     -0.007162794   -0.0813917697
0.9                            0               0                0               0      0.992342216   -0.0872786678  -4.73951632e-08   8.1145324e-06
                               0               0                0               0   1.28028452e-06  8.12579397e-06      0.992380542   -0.0872017895
                               0               0                0               0   -0.00796949993   -0.0874101458   4.65107666e-06  4.84419918e-06
                               0               0                0               0   4.65560439e-06  4.73565264e-06   -0.00813629795   -0.0870293485
0.96                           0               0                0               0      0.991309416   -0.0929666637   1.39121363e-07  8.68511945e-06
                               0               0                0               0   1.47318387e-06  8.63278121e-06      0.991348953   -0.0928898003
                               0               0                0               0   -0.00900442081     -0.09301708   5.13509728e-06  5.23544588e-06
                               0               0                0               0   5.13594092e-06  5.12330238e-06   -0.00916768109   -0.0926328583
1.02                           0               0                0               0       0.99021538   -0.0986300791   3.52666575e-07  9.24796343e-06
                               0               0                0               0   1.67791344e-06  9.13271296e-06      0.990255827   -0.0985536083
                               0               0                0               0    -0.0100979533   -0.0985851002   5.64561813e-06  5.63902114e-06
                               0               0                0               0   5.64247181e-06  5.52427736e-06    -0.0102562797   -0.0982004639
1.08                           0               0                0               0      0.989061066    -0.104267605   5.92163417e-07  9.80086319e-06
                               0               0                0               0   1.89404336e-06  9.62526886e-06      0.989102126    -0.104191844
                               0               0                0               0    -0.0112492358    -0.104112508   6.18423932e-06  6.05434562e-06
                               0               0                0               0   6.17688834e-06  5.93805873e-06    -0.0114013801    -0.103730353
1.14                           0               0                0               0      0.987847482    -0.109877975   8.56291813e-07  1.03417875e-05
                               0               0                0               0   2.12113467e-06  1.01101557e-05      0.987888865    -0.109803184
                               0               0                0               0    -0.0124573633    -0.109597632   6.75259422e-06  6.48071204e-06
                               0               0                0               0   6.74092627e-06  6.36399258e-06    -0.0126022199    -0.109220734
1.2                            0               0                0               0      0.986575681    -0.115459967   1.14351993e-06  1.08689061e-05
                               0               0                0               0   2.35874113e-06  1.05871074e-05      0.986617108    -0.115386357
                               0               0                0               0    -0.0137213886    -0.115038832   7.35234009e-06  6.91727564e-06
                               0               0                0               0   7.33635622e-06  6.80127852e-06    -0.0138579893    -0.114669846
1.26                           0               0                0               0       0.98524676     -0.12101241   1.45213975e-06  1.13806148e-05
                               0               0                0               0   2.60641095e-06  1.10558849e-05      0.985287966    -0.120940139
                               0               0                0               0    -0.0150403242    -0.120434497   7.98514697e-06    7.363045e-06
                               0               0                0               0   7.96497221e-06  7.24895859e-06    -0.0151678325    -0.120075949
1.32                           0               0                0               0      0.983861861    -0.126534175    1.7803053e-06  1.18755523e-05
                               0               0                0               0   2.86368842e-06  1.15162757e-05      0.983902593    -0.126463362
                               0               0                0               0    -0.0164131434    -0.125783048   8.65268507e-06  7.81687363e-06
                               0               0                0               0   8.62857814e-06  7.70590677e-06    -0.0165308493    -0.125437336
1.38                           0               0                0               0      0.982422164    -0.132024189   2.12607221e-06   1.2352611e-05
                               0               0                0               0   3.13011556e-06  1.19680937e-05      0.982462185    -0.131954909
                               0               0                0               0    -0.0178387826     -0.13108294   9.35661024e-06  8.27745245e-06
                               0               0                0               0   9.32897223e-06  8.17081943e-06    -0.0179460964    -0.130752328
1.44                           0               0                0               0      0.980928886    -0.137481428   2.48743691e-06  1.28109399e-05
                               0               0                0               0   3.40523357e-06  1.24111788e-05      0.980967979     -0.13741372
                               0               0                0               0    -0.0193161425    -0.136332663   1.00985479e-05  8.74330351e-06
                               0               0                0               0   1.00679294e-05  8.64220703e-06     -0.019412589    -0.136019279
1.5                            0               0                0               0      0.979383279     -0.14290492   2.86237422e-06   1.3249941e-05
                               0               0                0               0   3.68858431e-06  1.28453959e-05      0.979421244    -0.142838792
                               0               0                0               0    -0.0208440901    -0.141530739   1.08800754e-05  9.21277524e-06
                               0               0                0               0   1.08471815e-05  9.11838742e-06    -0.0209293027    -0.141236574
1.56                           0               0                0               0      0.977786629    -0.148293749   3.24887223e-06  1.36692607e-05
                               0               0                0               0   3.97971164e-06  1.32706347e-05      0.977823286    -0.148229177
                               0               0                0               0    -0.0224214606    -0.146675728   1.17027025e-05  9.68403967e-06
                               0               0                0               0   1.16683957e-05   9.5974813e-06    -0.0224951751    -0.146402634
1.62                           0               0                0               0       0.97614025    -0.153647054   3.64496357e-06   1.4068775e-05
                               0               0                0               0   4.27816269e-06  1.36868089e-05       0.97617544    -0.153583989
                               0               0                0               0    -0.0240470587    -0.151766226   1.25678507e-05  1.01550917e-05
                               0               0                0               0    1.2533151e-05  1.00774101e-05    -0.0241091076    -0.151515914
1.68                           0               0                0               0      0.974445486    -0.158964028   4.04875247e-06  1.44485716e-05
                               0               0                0               0   4.58348899e-06  1.40938553e-05      0.974479068    -0.158902399
                               0               0                0               0    -0.0257196611    -0.156800866   1.34768319e-05  1.06237512e-05
                               0               0                0               0   1.34429135e-05  1.05558968e-05    -0.0257699671    -0.156574906
1.74                           0               0                0               0      0.972703704    -0.164243923   4.45843723e-06  1.48089294e-05
                               0               0                0               0   4.89524763e-06   1.4491733e-05       0.97273556    -0.164183637
                               0               0                0               0    -0.0274380177    -0.161778319   1.44308253e-05  1.10876675e-05
                               0               0                0               0   1.43990099e-05    1.103047e-05    -0.0274765879    -0.161578137
1.8                            0               0                0               0      0.970916295    -0.169486048   4.87232806e-06  1.51502952e-05
                               0               0                0               0   5.21300217e-06  1.48804228e-05      0.970946326    -0.169426997
                               0               0                0               0     -0.029200854    -0.166697294   1.54308549e-05  1.15443275e-05
                               0               0                0               0   1.54026011e-05  1.14984717e-05    -0.0292277736    -0.166524175
1.86                           0               0                0               0      0.969084668    -0.174689769   5.28886034e-06  1.54732607e-05
                               0               0                0               0   5.53632362e-06   1.5259926e-05      0.969112797     -0.17463183
                               0               0                0               0    -0.0310068726    -0.171556537   1.64777662e-05  1.19910669e-05
                               0               0                0               0   1.64546547e-05  1.19570692e-05    -0.0310222991    -0.171411626
1.92                           0               0                0               0      0.967210253    -0.179854511   5.70660352e-06  1.57785385e-05
                               0               0                0               0   5.86479118e-06  1.56302638e-05      0.967236422    -0.179797549
                               0               0                0               0     -0.032854755    -0.176354835   1.75722041e-05  1.24250849e-05
                               0               0                0               0   1.75559189e-05  1.24032708e-05    -0.0328589123    -0.176239133
1.98                           0               0                0               0      0.965294492     -0.18497976   6.12426618e-06  1.60669393e-05
                               0               0                0               0   6.19799302e-06  1.59914761e-05      0.965318663    -0.184923631
                               0               0                0               0    -0.0347431637    -0.181091012   1.87145914e-05  1.28434623e-05
                               0               0                0               0   1.87068971e-05  1.28339467e-05    -0.0347363361     -0.18100538
2.04                           0               0                0               0      0.963338842    -0.190065058   6.54069754e-06  1.63393497e-05
                               0               0                0               0   6.53552688e-06  1.63436208e-05      0.963360996    -0.190009611
                               0               0                0               0    -0.0366707441    -0.185763931   1.99051096e-05  1.32431838e-05
                               0               0                0               0    1.9907824e-05  1.32458531e-05    -0.0366532704    -0.185709092
2.1                            0               0                0               0      0.961344768    -0.195110007    6.9548861e-06  1.65967127e-05
                               0               0                0               0   6.87700068e-06  1.66867729e-05      0.961364906    -0.195055086
                               0               0                0               0    -0.0386361257    -0.190372494   2.11436817e-05   1.3621163e-05
                               0               0                0               0   2.11586456e-05  1.36356615e-05    -0.0386083942    -0.190349035
2.16                           0               0                0               0      0.959313746     -0.20011427   7.36595579e-06  1.68400086e-05
                               0               0                0               0   7.22203297e-06  1.70210233e-05      0.959331883    -0.200059716
                               0               0                0               0    -0.0406379248    -0.194915641    2.2429958e-05  1.39742705e-05
                               0               0                0               0   2.24590014e-05  1.39999914e-05    -0.0406003669    -0.194924011
2.22                           0               0                0               0      0.957247254    -0.205077568   7.77316026e-06  1.70702393e-05
                               0               0                0               0   7.57025335e-06  1.73464783e-05      0.957263426    -0.205023221
                               0               0                0               0    -0.0426747453    -0.199392352   2.37633057e-05  1.42993656e-05
                               0               0                0               0   2.38082119e-05  1.43354465e-05     -0.042627831    -0.199432869
2.28                           0               0                0               0      0.955146776     -0.20999968   8.17587566e-06  1.72884136e-05
                               0               0                0               0   7.92130279e-06  1.76632582e-05      0.955161032     -0.20994538
                               0               0                0               0    -0.0447451812    -0.203801642   2.51428028e-05  1.45933291e-05
                               0               0                0               0   2.52052707e-05  1.46386536e-05    -0.0446894133    -0.203874494
2.34                           0               0                0               0      0.953013795    -0.214880444   8.57359247e-06  1.74955354e-05
                               0               0                0               0   8.27483395e-06   1.7971497e-05      0.953026202    -0.214826035
                               0               0                0               0    -0.0468478179    -0.208142566    2.6567236e-05  1.48530986e-05
                               0               0                0               0   2.66488424e-05  1.49063038e-05    -0.0467837274    -0.208247812
2.4                            0               0                0               0      0.950849797    -0.219719759   8.96590666e-06  1.76925935e-05
                               0               0                0               0   8.63051135e-06  1.82713411e-05      0.950860432    -0.219665085
                               0               0                0               0    -0.0489812341    -0.212414215   2.80351047e-05  1.50757039e-05
                               0               0                0               0   2.81372664e-05  1.51351942e-05    -0.0489093749    -0.212551792
2.46                           0               0                0               0      0.948656258    -0.224517578   9.35251055e-06   1.7880553e-05
                               0               0                0               0   8.98801155e-06   1.8562949e-05      0.948665214    -0.224462489
                               0               0                0               0    -0.0511440031    -0.216615717   2.95446288e-05  1.52583027e-05
                               0               0                0               0   2.96685673e-05  1.53222702e-05    -0.0510649477    -0.216785439
2.52                           0               0                0               0      0.946434656    -0.229273914   9.73318357e-06  1.80603494e-05
                               0               0                0               0   9.34702323e-06  1.88464897e-05      0.946442035    -0.229218267
                               0               0                0               0    -0.0533346945    -0.220746235   3.10937633e-05  1.53982158e-05
                               0               0                0               0   3.12404716e-05  1.54646662e-05    -0.0532490295    -0.220947801
2.58                           0               0                0               0      0.944186456    -0.233988836   1.01077832e-05  1.82328829e-05
                               0               0                0               0   9.70724728e-06  1.91221429e-05      0.944192373    -0.233932492
                               0               0                0               0    -0.0555518759    -0.224804967   3.26802165e-05  1.54929598e-05
                               0               0                0               0   3.28504309e-05  1.55597442e-05    -0.0554601977    -0.225037961
2.64                           0               0                0               0      0.941913115     -0.23866247   1.04762365e-05  1.83990151e-05
                               0               0                0               0   1.00683968e-05  1.93900975e-05      0.941917695    -0.238605299
                               0               0                0               0    -0.0577941141    -0.228791146   3.43014747e-05  1.55402777e-05
                               0               0                0               0   3.44956505e-05   1.5605129e-05     -0.057697025    -0.229055045
2.7                            0               0                0               0      0.939616082    -0.243294996   1.08385312e-05  1.85595667e-05
                               0               0                0               0    1.0430197e-05  1.96505513e-05      0.939619456    -0.243236875
                               0               0                0               0    -0.0600599768    -0.232704038   3.59548298e-05  1.55381657e-05
                               0               0                0               0   3.61731242e-05  1.55987389e-05    -0.0599580808    -0.232998213
2.76                           0               0                0               0      0.937296788    -0.247886651   1.11947086e-05  1.87153154e-05
                               0               0                0               0   1.07923853e-05  1.99037105e-05      0.937299096    -0.247827466
                               0               0                0               0    -0.0623480335    -0.236542941   3.76374119e-05   1.5484896e-05
                               0               0                0               0   3.78796724e-05  1.55388113e-05     -0.062241933    -0.236866663
2.82                           0               0                0               0      0.934956652    -0.252437724   1.15448562e-05  1.88669962e-05
                               0               0                0               0   1.11547111e-05  2.01497888e-05      0.934958041     -0.25237737
                               0               0                0               0    -0.0646568572    -0.240307187   3.93462244e-05  1.53790345e-05
                               0               0                0               0   3.96119851e-05  1.54239219e-05    -0.0645471497     -0.24065963
2.88                           0               0                0               0      0.932597076    -0.256948558   1.18891009e-05  1.90153006e-05